V -t * -v 1.0a5 -a 0
A -t * -n 1 -p 0 -o 0xffffffff -c 31 -a 1
A -t * -h 1 -m 2147483647 -s 0
c -t * -i 1 -n Red
c -t * -i 2 -n Green
n -t * -a 0 -s 0 -S UP -v circle -c black -i black
n -t * -a 1 -s 1 -S UP -v circle -c black -i black
n -t * -a 2 -s 2 -S UP -v hexagon -c Blue -i Blue
l -t * -s 0 -d 2 -S UP -r 400000 -D 0.01 -c black -o right-down
l -t * -s 1 -d 2 -S UP -r 2000000 -D 0.01 -c black -o right-up
+ -t 1 -s 1 -d 2 -p cbr -e 210 -c 2 -i 0 -a 2 -x {1.0 2.1 0 ------- null}
- -t 1 -s 1 -d 2 -p cbr -e 210 -c 2 -i 0 -a 2 -x {1.0 2.1 0 ------- null}
h -t 1 -s 1 -d 2 -p cbr -e 210 -c 2 -i 0 -a 2 -x {1.0 2.1 -1 ------- null}
+ -t 1.00375 -s 1 -d 2 -p cbr -e 210 -c 2 -i 1 -a 2 -x {1.0 2.1 1 ------- null}
- -t 1.00375 -s 1 -d 2 -p cbr -e 210 -c 2 -i 1 -a 2 -x {1.0 2.1 1 ------- null}
h -t 1.00375 -s 1 -d 2 -p cbr -e 210 -c 2 -i 1 -a 2 -x {1.0 2.1 -1 ------- null}
+ -t 1.0075 -s 1 -d 2 -p cbr -e 210 -c 2 -i 2 -a 2 -x {1.0 2.1 2 ------- null}
- -t 1.0075 -s 1 -d 2 -p cbr -e 210 -c 2 -i 2 -a 2 -x {1.0 2.1 2 ------- null}
h -t 1.0075 -s 1 -d 2 -p cbr -e 210 -c 2 -i 2 -a 2 -x {1.0 2.1 -1 ------- null}
r -t 1.01084 -s 1 -d 2 -p cbr -e 210 -c 2 -i 0 -a 2 -x {1.0 2.1 0 ------- null}
+ -t 1.01125 -s 1 -d 2 -p cbr -e 210 -c 2 -i 3 -a 2 -x {1.0 2.1 3 ------- null}
- -t 1.01125 -s 1 -d 2 -p cbr -e 210 -c 2 -i 3 -a 2 -x {1.0 2.1 3 ------- null}
h -t 1.01125 -s 1 -d 2 -p cbr -e 210 -c 2 -i 3 -a 2 -x {1.0 2.1 -1 ------- null}
r -t 1.01459 -s 1 -d 2 -p cbr -e 210 -c 2 -i 1 -a 2 -x {1.0 2.1 1 ------- null}
+ -t 1.015 -s 1 -d 2 -p cbr -e 210 -c 2 -i 4 -a 2 -x {1.0 2.1 4 ------- null}
- -t 1.015 -s 1 -d 2 -p cbr -e 210 -c 2 -i 4 -a 2 -x {1.0 2.1 4 ------- null}
h -t 1.015 -s 1 -d 2 -p cbr -e 210 -c 2 -i 4 -a 2 -x {1.0 2.1 -1 ------- null}
r -t 1.01834 -s 1 -d 2 -p cbr -e 210 -c 2 -i 2 -a 2 -x {1.0 2.1 2 ------- null}
+ -t 1.01875 -s 1 -d 2 -p cbr -e 210 -c 2 -i 5 -a 2 -x {1.0 2.1 5 ------- null}
- -t 1.01875 -s 1 -d 2 -p cbr -e 210 -c 2 -i 5 -a 2 -x {1.0 2.1 5 ------- null}
h -t 1.01875 -s 1 -d 2 -p cbr -e 210 -c 2 -i 5 -a 2 -x {1.0 2.1 -1 ------- null}
r -t 1.02209 -s 1 -d 2 -p cbr -e 210 -c 2 -i 3 -a 2 -x {1.0 2.1 3 ------- null}
+ -t 1.0225 -s 1 -d 2 -p cbr -e 210 -c 2 -i 6 -a 2 -x {1.0 2.1 6 ------- null}
- -t 1.0225 -s 1 -d 2 -p cbr -e 210 -c 2 -i 6 -a 2 -x {1.0 2.1 6 ------- null}
h -t 1.0225 -s 1 -d 2 -p cbr -e 210 -c 2 -i 6 -a 2 -x {1.0 2.1 -1 ------- null}
r -t 1.02584 -s 1 -d 2 -p cbr -e 210 -c 2 -i 4 -a 2 -x {1.0 2.1 4 ------- null}
+ -t 1.02625 -s 1 -d 2 -p cbr -e 210 -c 2 -i 7 -a 2 -x {1.0 2.1 7 ------- null}
- -t 1.02625 -s 1 -d 2 -p cbr -e 210 -c 2 -i 7 -a 2 -x {1.0 2.1 7 ------- null}
h -t 1.02625 -s 1 -d 2 -p cbr -e 210 -c 2 -i 7 -a 2 -x {1.0 2.1 -1 ------- null}
r -t 1.02959 -s 1 -d 2 -p cbr -e 210 -c 2 -i 5 -a 2 -x {1.0 2.1 5 ------- null}
+ -t 1.03 -s 1 -d 2 -p cbr -e 210 -c 2 -i 8 -a 2 -x {1.0 2.1 8 ------- null}
- -t 1.03 -s 1 -d 2 -p cbr -e 210 -c 2 -i 8 -a 2 -x {1.0 2.1 8 ------- null}
h -t 1.03 -s 1 -d 2 -p cbr -e 210 -c 2 -i 8 -a 2 -x {1.0 2.1 -1 ------- null}
r -t 1.03334 -s 1 -d 2 -p cbr -e 210 -c 2 -i 6 -a 2 -x {1.0 2.1 6 ------- null}
+ -t 1.03375 -s 1 -d 2 -p cbr -e 210 -c 2 -i 9 -a 2 -x {1.0 2.1 9 ------- null}
- -t 1.03375 -s 1 -d 2 -p cbr -e 210 -c 2 -i 9 -a 2 -x {1.0 2.1 9 ------- null}
h -t 1.03375 -s 1 -d 2 -p cbr -e 210 -c 2 -i 9 -a 2 -x {1.0 2.1 -1 ------- null}
r -t 1.03709 -s 1 -d 2 -p cbr -e 210 -c 2 -i 7 -a 2 -x {1.0 2.1 7 ------- null}
+ -t 1.0375 -s 1 -d 2 -p cbr -e 210 -c 2 -i 10 -a 2 -x {1.0 2.1 10 ------- null}
- -t 1.0375 -s 1 -d 2 -p cbr -e 210 -c 2 -i 10 -a 2 -x {1.0 2.1 10 ------- null}
h -t 1.0375 -s 1 -d 2 -p cbr -e 210 -c 2 -i 10 -a 2 -x {1.0 2.1 -1 ------- null}
r -t 1.04084 -s 1 -d 2 -p cbr -e 210 -c 2 -i 8 -a 2 -x {1.0 2.1 8 ------- null}
+ -t 1.04125 -s 1 -d 2 -p cbr -e 210 -c 2 -i 11 -a 2 -x {1.0 2.1 11 ------- null}
- -t 1.04125 -s 1 -d 2 -p cbr -e 210 -c 2 -i 11 -a 2 -x {1.0 2.1 11 ------- null}
h -t 1.04125 -s 1 -d 2 -p cbr -e 210 -c 2 -i 11 -a 2 -x {1.0 2.1 -1 ------- null}
r -t 1.04459 -s 1 -d 2 -p cbr -e 210 -c 2 -i 9 -a 2 -x {1.0 2.1 9 ------- null}
+ -t 1.045 -s 1 -d 2 -p cbr -e 210 -c 2 -i 12 -a 2 -x {1.0 2.1 12 ------- null}
- -t 1.045 -s 1 -d 2 -p cbr -e 210 -c 2 -i 12 -a 2 -x {1.0 2.1 12 ------- null}
h -t 1.045 -s 1 -d 2 -p cbr -e 210 -c 2 -i 12 -a 2 -x {1.0 2.1 -1 ------- null}
r -t 1.04834 -s 1 -d 2 -p cbr -e 210 -c 2 -i 10 -a 2 -x {1.0 2.1 10 ------- null}
+ -t 1.04875 -s 1 -d 2 -p cbr -e 210 -c 2 -i 13 -a 2 -x {1.0 2.1 13 ------- null}
- -t 1.04875 -s 1 -d 2 -p cbr -e 210 -c 2 -i 13 -a 2 -x {1.0 2.1 13 ------- null}
h -t 1.04875 -s 1 -d 2 -p cbr -e 210 -c 2 -i 13 -a 2 -x {1.0 2.1 -1 ------- null}
r -t 1.05209 -s 1 -d 2 -p cbr -e 210 -c 2 -i 11 -a 2 -x {1.0 2.1 11 ------- null}
+ -t 1.0525 -s 1 -d 2 -p cbr -e 210 -c 2 -i 14 -a 2 -x {1.0 2.1 14 ------- null}
- -t 1.0525 -s 1 -d 2 -p cbr -e 210 -c 2 -i 14 -a 2 -x {1.0 2.1 14 ------- null}
h -t 1.0525 -s 1 -d 2 -p cbr -e 210 -c 2 -i 14 -a 2 -x {1.0 2.1 -1 ------- null}
r -t 1.05584 -s 1 -d 2 -p cbr -e 210 -c 2 -i 12 -a 2 -x {1.0 2.1 12 ------- null}
+ -t 1.05625 -s 1 -d 2 -p cbr -e 210 -c 2 -i 15 -a 2 -x {1.0 2.1 15 ------- null}
- -t 1.05625 -s 1 -d 2 -p cbr -e 210 -c 2 -i 15 -a 2 -x {1.0 2.1 15 ------- null}
h -t 1.05625 -s 1 -d 2 -p cbr -e 210 -c 2 -i 15 -a 2 -x {1.0 2.1 -1 ------- null}
r -t 1.05959 -s 1 -d 2 -p cbr -e 210 -c 2 -i 13 -a 2 -x {1.0 2.1 13 ------- null}
+ -t 1.06 -s 1 -d 2 -p cbr -e 210 -c 2 -i 16 -a 2 -x {1.0 2.1 16 ------- null}
- -t 1.06 -s 1 -d 2 -p cbr -e 210 -c 2 -i 16 -a 2 -x {1.0 2.1 16 ------- null}
h -t 1.06 -s 1 -d 2 -p cbr -e 210 -c 2 -i 16 -a 2 -x {1.0 2.1 -1 ------- null}
r -t 1.06334 -s 1 -d 2 -p cbr -e 210 -c 2 -i 14 -a 2 -x {1.0 2.1 14 ------- null}
+ -t 1.06375 -s 1 -d 2 -p cbr -e 210 -c 2 -i 17 -a 2 -x {1.0 2.1 17 ------- null}
- -t 1.06375 -s 1 -d 2 -p cbr -e 210 -c 2 -i 17 -a 2 -x {1.0 2.1 17 ------- null}
h -t 1.06375 -s 1 -d 2 -p cbr -e 210 -c 2 -i 17 -a 2 -x {1.0 2.1 -1 ------- null}
r -t 1.06709 -s 1 -d 2 -p cbr -e 210 -c 2 -i 15 -a 2 -x {1.0 2.1 15 ------- null}
+ -t 1.0675 -s 1 -d 2 -p cbr -e 210 -c 2 -i 18 -a 2 -x {1.0 2.1 18 ------- null}
- -t 1.0675 -s 1 -d 2 -p cbr -e 210 -c 2 -i 18 -a 2 -x {1.0 2.1 18 ------- null}
h -t 1.0675 -s 1 -d 2 -p cbr -e 210 -c 2 -i 18 -a 2 -x {1.0 2.1 -1 ------- null}
r -t 1.07084 -s 1 -d 2 -p cbr -e 210 -c 2 -i 16 -a 2 -x {1.0 2.1 16 ------- null}
+ -t 1.07125 -s 1 -d 2 -p cbr -e 210 -c 2 -i 19 -a 2 -x {1.0 2.1 19 ------- null}
- -t 1.07125 -s 1 -d 2 -p cbr -e 210 -c 2 -i 19 -a 2 -x {1.0 2.1 19 ------- null}
h -t 1.07125 -s 1 -d 2 -p cbr -e 210 -c 2 -i 19 -a 2 -x {1.0 2.1 -1 ------- null}
r -t 1.07459 -s 1 -d 2 -p cbr -e 210 -c 2 -i 17 -a 2 -x {1.0 2.1 17 ------- null}
+ -t 1.075 -s 1 -d 2 -p cbr -e 210 -c 2 -i 20 -a 2 -x {1.0 2.1 20 ------- null}
- -t 1.075 -s 1 -d 2 -p cbr -e 210 -c 2 -i 20 -a 2 -x {1.0 2.1 20 ------- null}
h -t 1.075 -s 1 -d 2 -p cbr -e 210 -c 2 -i 20 -a 2 -x {1.0 2.1 -1 ------- null}
r -t 1.07834 -s 1 -d 2 -p cbr -e 210 -c 2 -i 18 -a 2 -x {1.0 2.1 18 ------- null}
+ -t 1.07875 -s 1 -d 2 -p cbr -e 210 -c 2 -i 21 -a 2 -x {1.0 2.1 21 ------- null}
- -t 1.07875 -s 1 -d 2 -p cbr -e 210 -c 2 -i 21 -a 2 -x {1.0 2.1 21 ------- null}
h -t 1.07875 -s 1 -d 2 -p cbr -e 210 -c 2 -i 21 -a 2 -x {1.0 2.1 -1 ------- null}
r -t 1.08209 -s 1 -d 2 -p cbr -e 210 -c 2 -i 19 -a 2 -x {1.0 2.1 19 ------- null}
+ -t 1.0825 -s 1 -d 2 -p cbr -e 210 -c 2 -i 22 -a 2 -x {1.0 2.1 22 ------- null}
- -t 1.0825 -s 1 -d 2 -p cbr -e 210 -c 2 -i 22 -a 2 -x {1.0 2.1 22 ------- null}
h -t 1.0825 -s 1 -d 2 -p cbr -e 210 -c 2 -i 22 -a 2 -x {1.0 2.1 -1 ------- null}
r -t 1.08584 -s 1 -d 2 -p cbr -e 210 -c 2 -i 20 -a 2 -x {1.0 2.1 20 ------- null}
+ -t 1.08625 -s 1 -d 2 -p cbr -e 210 -c 2 -i 23 -a 2 -x {1.0 2.1 23 ------- null}
- -t 1.08625 -s 1 -d 2 -p cbr -e 210 -c 2 -i 23 -a 2 -x {1.0 2.1 23 ------- null}
h -t 1.08625 -s 1 -d 2 -p cbr -e 210 -c 2 -i 23 -a 2 -x {1.0 2.1 -1 ------- null}
r -t 1.08959 -s 1 -d 2 -p cbr -e 210 -c 2 -i 21 -a 2 -x {1.0 2.1 21 ------- null}
+ -t 1.09 -s 1 -d 2 -p cbr -e 210 -c 2 -i 24 -a 2 -x {1.0 2.1 24 ------- null}
- -t 1.09 -s 1 -d 2 -p cbr -e 210 -c 2 -i 24 -a 2 -x {1.0 2.1 24 ------- null}
h -t 1.09 -s 1 -d 2 -p cbr -e 210 -c 2 -i 24 -a 2 -x {1.0 2.1 -1 ------- null}
r -t 1.09334 -s 1 -d 2 -p cbr -e 210 -c 2 -i 22 -a 2 -x {1.0 2.1 22 ------- null}
+ -t 1.09375 -s 1 -d 2 -p cbr -e 210 -c 2 -i 25 -a 2 -x {1.0 2.1 25 ------- null}
- -t 1.09375 -s 1 -d 2 -p cbr -e 210 -c 2 -i 25 -a 2 -x {1.0 2.1 25 ------- null}
h -t 1.09375 -s 1 -d 2 -p cbr -e 210 -c 2 -i 25 -a 2 -x {1.0 2.1 -1 ------- null}
r -t 1.09709 -s 1 -d 2 -p cbr -e 210 -c 2 -i 23 -a 2 -x {1.0 2.1 23 ------- null}
+ -t 1.0975 -s 1 -d 2 -p cbr -e 210 -c 2 -i 26 -a 2 -x {1.0 2.1 26 ------- null}
- -t 1.0975 -s 1 -d 2 -p cbr -e 210 -c 2 -i 26 -a 2 -x {1.0 2.1 26 ------- null}
h -t 1.0975 -s 1 -d 2 -p cbr -e 210 -c 2 -i 26 -a 2 -x {1.0 2.1 -1 ------- null}
r -t 1.10084 -s 1 -d 2 -p cbr -e 210 -c 2 -i 24 -a 2 -x {1.0 2.1 24 ------- null}
+ -t 1.10125 -s 1 -d 2 -p cbr -e 210 -c 2 -i 27 -a 2 -x {1.0 2.1 27 ------- null}
- -t 1.10125 -s 1 -d 2 -p cbr -e 210 -c 2 -i 27 -a 2 -x {1.0 2.1 27 ------- null}
h -t 1.10125 -s 1 -d 2 -p cbr -e 210 -c 2 -i 27 -a 2 -x {1.0 2.1 -1 ------- null}
r -t 1.10459 -s 1 -d 2 -p cbr -e 210 -c 2 -i 25 -a 2 -x {1.0 2.1 25 ------- null}
+ -t 1.105 -s 1 -d 2 -p cbr -e 210 -c 2 -i 28 -a 2 -x {1.0 2.1 28 ------- null}
- -t 1.105 -s 1 -d 2 -p cbr -e 210 -c 2 -i 28 -a 2 -x {1.0 2.1 28 ------- null}
h -t 1.105 -s 1 -d 2 -p cbr -e 210 -c 2 -i 28 -a 2 -x {1.0 2.1 -1 ------- null}
r -t 1.10834 -s 1 -d 2 -p cbr -e 210 -c 2 -i 26 -a 2 -x {1.0 2.1 26 ------- null}
+ -t 1.10875 -s 1 -d 2 -p cbr -e 210 -c 2 -i 29 -a 2 -x {1.0 2.1 29 ------- null}
- -t 1.10875 -s 1 -d 2 -p cbr -e 210 -c 2 -i 29 -a 2 -x {1.0 2.1 29 ------- null}
h -t 1.10875 -s 1 -d 2 -p cbr -e 210 -c 2 -i 29 -a 2 -x {1.0 2.1 -1 ------- null}
r -t 1.11209 -s 1 -d 2 -p cbr -e 210 -c 2 -i 27 -a 2 -x {1.0 2.1 27 ------- null}
+ -t 1.1125 -s 1 -d 2 -p cbr -e 210 -c 2 -i 30 -a 2 -x {1.0 2.1 30 ------- null}
- -t 1.1125 -s 1 -d 2 -p cbr -e 210 -c 2 -i 30 -a 2 -x {1.0 2.1 30 ------- null}
h -t 1.1125 -s 1 -d 2 -p cbr -e 210 -c 2 -i 30 -a 2 -x {1.0 2.1 -1 ------- null}
r -t 1.11584 -s 1 -d 2 -p cbr -e 210 -c 2 -i 28 -a 2 -x {1.0 2.1 28 ------- null}
+ -t 1.11625 -s 1 -d 2 -p cbr -e 210 -c 2 -i 31 -a 2 -x {1.0 2.1 31 ------- null}
- -t 1.11625 -s 1 -d 2 -p cbr -e 210 -c 2 -i 31 -a 2 -x {1.0 2.1 31 ------- null}
h -t 1.11625 -s 1 -d 2 -p cbr -e 210 -c 2 -i 31 -a 2 -x {1.0 2.1 -1 ------- null}
r -t 1.11959 -s 1 -d 2 -p cbr -e 210 -c 2 -i 29 -a 2 -x {1.0 2.1 29 ------- null}
+ -t 1.12 -s 1 -d 2 -p cbr -e 210 -c 2 -i 32 -a 2 -x {1.0 2.1 32 ------- null}
- -t 1.12 -s 1 -d 2 -p cbr -e 210 -c 2 -i 32 -a 2 -x {1.0 2.1 32 ------- null}
h -t 1.12 -s 1 -d 2 -p cbr -e 210 -c 2 -i 32 -a 2 -x {1.0 2.1 -1 ------- null}
r -t 1.12334 -s 1 -d 2 -p cbr -e 210 -c 2 -i 30 -a 2 -x {1.0 2.1 30 ------- null}
+ -t 1.12375 -s 1 -d 2 -p cbr -e 210 -c 2 -i 33 -a 2 -x {1.0 2.1 33 ------- null}
- -t 1.12375 -s 1 -d 2 -p cbr -e 210 -c 2 -i 33 -a 2 -x {1.0 2.1 33 ------- null}
h -t 1.12375 -s 1 -d 2 -p cbr -e 210 -c 2 -i 33 -a 2 -x {1.0 2.1 -1 ------- null}
r -t 1.12709 -s 1 -d 2 -p cbr -e 210 -c 2 -i 31 -a 2 -x {1.0 2.1 31 ------- null}
+ -t 1.1275 -s 1 -d 2 -p cbr -e 210 -c 2 -i 34 -a 2 -x {1.0 2.1 34 ------- null}
- -t 1.1275 -s 1 -d 2 -p cbr -e 210 -c 2 -i 34 -a 2 -x {1.0 2.1 34 ------- null}
h -t 1.1275 -s 1 -d 2 -p cbr -e 210 -c 2 -i 34 -a 2 -x {1.0 2.1 -1 ------- null}
r -t 1.13084 -s 1 -d 2 -p cbr -e 210 -c 2 -i 32 -a 2 -x {1.0 2.1 32 ------- null}
+ -t 1.13125 -s 1 -d 2 -p cbr -e 210 -c 2 -i 35 -a 2 -x {1.0 2.1 35 ------- null}
- -t 1.13125 -s 1 -d 2 -p cbr -e 210 -c 2 -i 35 -a 2 -x {1.0 2.1 35 ------- null}
h -t 1.13125 -s 1 -d 2 -p cbr -e 210 -c 2 -i 35 -a 2 -x {1.0 2.1 -1 ------- null}
r -t 1.13459 -s 1 -d 2 -p cbr -e 210 -c 2 -i 33 -a 2 -x {1.0 2.1 33 ------- null}
+ -t 1.135 -s 1 -d 2 -p cbr -e 210 -c 2 -i 36 -a 2 -x {1.0 2.1 36 ------- null}
- -t 1.135 -s 1 -d 2 -p cbr -e 210 -c 2 -i 36 -a 2 -x {1.0 2.1 36 ------- null}
h -t 1.135 -s 1 -d 2 -p cbr -e 210 -c 2 -i 36 -a 2 -x {1.0 2.1 -1 ------- null}
r -t 1.13834 -s 1 -d 2 -p cbr -e 210 -c 2 -i 34 -a 2 -x {1.0 2.1 34 ------- null}
+ -t 1.13875 -s 1 -d 2 -p cbr -e 210 -c 2 -i 37 -a 2 -x {1.0 2.1 37 ------- null}
- -t 1.13875 -s 1 -d 2 -p cbr -e 210 -c 2 -i 37 -a 2 -x {1.0 2.1 37 ------- null}
h -t 1.13875 -s 1 -d 2 -p cbr -e 210 -c 2 -i 37 -a 2 -x {1.0 2.1 -1 ------- null}
r -t 1.14209 -s 1 -d 2 -p cbr -e 210 -c 2 -i 35 -a 2 -x {1.0 2.1 35 ------- null}
+ -t 1.1425 -s 1 -d 2 -p cbr -e 210 -c 2 -i 38 -a 2 -x {1.0 2.1 38 ------- null}
- -t 1.1425 -s 1 -d 2 -p cbr -e 210 -c 2 -i 38 -a 2 -x {1.0 2.1 38 ------- null}
h -t 1.1425 -s 1 -d 2 -p cbr -e 210 -c 2 -i 38 -a 2 -x {1.0 2.1 -1 ------- null}
r -t 1.14584 -s 1 -d 2 -p cbr -e 210 -c 2 -i 36 -a 2 -x {1.0 2.1 36 ------- null}
+ -t 1.14625 -s 1 -d 2 -p cbr -e 210 -c 2 -i 39 -a 2 -x {1.0 2.1 39 ------- null}
- -t 1.14625 -s 1 -d 2 -p cbr -e 210 -c 2 -i 39 -a 2 -x {1.0 2.1 39 ------- null}
h -t 1.14625 -s 1 -d 2 -p cbr -e 210 -c 2 -i 39 -a 2 -x {1.0 2.1 -1 ------- null}
r -t 1.14959 -s 1 -d 2 -p cbr -e 210 -c 2 -i 37 -a 2 -x {1.0 2.1 37 ------- null}
+ -t 1.15 -s 1 -d 2 -p cbr -e 210 -c 2 -i 40 -a 2 -x {1.0 2.1 40 ------- null}
- -t 1.15 -s 1 -d 2 -p cbr -e 210 -c 2 -i 40 -a 2 -x {1.0 2.1 40 ------- null}
h -t 1.15 -s 1 -d 2 -p cbr -e 210 -c 2 -i 40 -a 2 -x {1.0 2.1 -1 ------- null}
r -t 1.15334 -s 1 -d 2 -p cbr -e 210 -c 2 -i 38 -a 2 -x {1.0 2.1 38 ------- null}
+ -t 1.15375 -s 1 -d 2 -p cbr -e 210 -c 2 -i 41 -a 2 -x {1.0 2.1 41 ------- null}
- -t 1.15375 -s 1 -d 2 -p cbr -e 210 -c 2 -i 41 -a 2 -x {1.0 2.1 41 ------- null}
h -t 1.15375 -s 1 -d 2 -p cbr -e 210 -c 2 -i 41 -a 2 -x {1.0 2.1 -1 ------- null}
r -t 1.15709 -s 1 -d 2 -p cbr -e 210 -c 2 -i 39 -a 2 -x {1.0 2.1 39 ------- null}
+ -t 1.1575 -s 1 -d 2 -p cbr -e 210 -c 2 -i 42 -a 2 -x {1.0 2.1 42 ------- null}
- -t 1.1575 -s 1 -d 2 -p cbr -e 210 -c 2 -i 42 -a 2 -x {1.0 2.1 42 ------- null}
h -t 1.1575 -s 1 -d 2 -p cbr -e 210 -c 2 -i 42 -a 2 -x {1.0 2.1 -1 ------- null}
r -t 1.16084 -s 1 -d 2 -p cbr -e 210 -c 2 -i 40 -a 2 -x {1.0 2.1 40 ------- null}
+ -t 1.16125 -s 1 -d 2 -p cbr -e 210 -c 2 -i 43 -a 2 -x {1.0 2.1 43 ------- null}
- -t 1.16125 -s 1 -d 2 -p cbr -e 210 -c 2 -i 43 -a 2 -x {1.0 2.1 43 ------- null}
h -t 1.16125 -s 1 -d 2 -p cbr -e 210 -c 2 -i 43 -a 2 -x {1.0 2.1 -1 ------- null}
r -t 1.16459 -s 1 -d 2 -p cbr -e 210 -c 2 -i 41 -a 2 -x {1.0 2.1 41 ------- null}
+ -t 1.165 -s 1 -d 2 -p cbr -e 210 -c 2 -i 44 -a 2 -x {1.0 2.1 44 ------- null}
- -t 1.165 -s 1 -d 2 -p cbr -e 210 -c 2 -i 44 -a 2 -x {1.0 2.1 44 ------- null}
h -t 1.165 -s 1 -d 2 -p cbr -e 210 -c 2 -i 44 -a 2 -x {1.0 2.1 -1 ------- null}
r -t 1.16834 -s 1 -d 2 -p cbr -e 210 -c 2 -i 42 -a 2 -x {1.0 2.1 42 ------- null}
+ -t 1.16875 -s 1 -d 2 -p cbr -e 210 -c 2 -i 45 -a 2 -x {1.0 2.1 45 ------- null}
- -t 1.16875 -s 1 -d 2 -p cbr -e 210 -c 2 -i 45 -a 2 -x {1.0 2.1 45 ------- null}
h -t 1.16875 -s 1 -d 2 -p cbr -e 210 -c 2 -i 45 -a 2 -x {1.0 2.1 -1 ------- null}
r -t 1.17209 -s 1 -d 2 -p cbr -e 210 -c 2 -i 43 -a 2 -x {1.0 2.1 43 ------- null}
+ -t 1.1725 -s 1 -d 2 -p cbr -e 210 -c 2 -i 46 -a 2 -x {1.0 2.1 46 ------- null}
- -t 1.1725 -s 1 -d 2 -p cbr -e 210 -c 2 -i 46 -a 2 -x {1.0 2.1 46 ------- null}
h -t 1.1725 -s 1 -d 2 -p cbr -e 210 -c 2 -i 46 -a 2 -x {1.0 2.1 -1 ------- null}
r -t 1.17584 -s 1 -d 2 -p cbr -e 210 -c 2 -i 44 -a 2 -x {1.0 2.1 44 ------- null}
+ -t 1.17625 -s 1 -d 2 -p cbr -e 210 -c 2 -i 47 -a 2 -x {1.0 2.1 47 ------- null}
- -t 1.17625 -s 1 -d 2 -p cbr -e 210 -c 2 -i 47 -a 2 -x {1.0 2.1 47 ------- null}
h -t 1.17625 -s 1 -d 2 -p cbr -e 210 -c 2 -i 47 -a 2 -x {1.0 2.1 -1 ------- null}
r -t 1.17959 -s 1 -d 2 -p cbr -e 210 -c 2 -i 45 -a 2 -x {1.0 2.1 45 ------- null}
+ -t 1.18 -s 1 -d 2 -p cbr -e 210 -c 2 -i 48 -a 2 -x {1.0 2.1 48 ------- null}
- -t 1.18 -s 1 -d 2 -p cbr -e 210 -c 2 -i 48 -a 2 -x {1.0 2.1 48 ------- null}
h -t 1.18 -s 1 -d 2 -p cbr -e 210 -c 2 -i 48 -a 2 -x {1.0 2.1 -1 ------- null}
r -t 1.18334 -s 1 -d 2 -p cbr -e 210 -c 2 -i 46 -a 2 -x {1.0 2.1 46 ------- null}
+ -t 1.18375 -s 1 -d 2 -p cbr -e 210 -c 2 -i 49 -a 2 -x {1.0 2.1 49 ------- null}
- -t 1.18375 -s 1 -d 2 -p cbr -e 210 -c 2 -i 49 -a 2 -x {1.0 2.1 49 ------- null}
h -t 1.18375 -s 1 -d 2 -p cbr -e 210 -c 2 -i 49 -a 2 -x {1.0 2.1 -1 ------- null}
r -t 1.18709 -s 1 -d 2 -p cbr -e 210 -c 2 -i 47 -a 2 -x {1.0 2.1 47 ------- null}
+ -t 1.1875 -s 1 -d 2 -p cbr -e 210 -c 2 -i 50 -a 2 -x {1.0 2.1 50 ------- null}
- -t 1.1875 -s 1 -d 2 -p cbr -e 210 -c 2 -i 50 -a 2 -x {1.0 2.1 50 ------- null}
h -t 1.1875 -s 1 -d 2 -p cbr -e 210 -c 2 -i 50 -a 2 -x {1.0 2.1 -1 ------- null}
r -t 1.19084 -s 1 -d 2 -p cbr -e 210 -c 2 -i 48 -a 2 -x {1.0 2.1 48 ------- null}
+ -t 1.19125 -s 1 -d 2 -p cbr -e 210 -c 2 -i 51 -a 2 -x {1.0 2.1 51 ------- null}
- -t 1.19125 -s 1 -d 2 -p cbr -e 210 -c 2 -i 51 -a 2 -x {1.0 2.1 51 ------- null}
h -t 1.19125 -s 1 -d 2 -p cbr -e 210 -c 2 -i 51 -a 2 -x {1.0 2.1 -1 ------- null}
r -t 1.19459 -s 1 -d 2 -p cbr -e 210 -c 2 -i 49 -a 2 -x {1.0 2.1 49 ------- null}
+ -t 1.195 -s 1 -d 2 -p cbr -e 210 -c 2 -i 52 -a 2 -x {1.0 2.1 52 ------- null}
- -t 1.195 -s 1 -d 2 -p cbr -e 210 -c 2 -i 52 -a 2 -x {1.0 2.1 52 ------- null}
h -t 1.195 -s 1 -d 2 -p cbr -e 210 -c 2 -i 52 -a 2 -x {1.0 2.1 -1 ------- null}
r -t 1.19834 -s 1 -d 2 -p cbr -e 210 -c 2 -i 50 -a 2 -x {1.0 2.1 50 ------- null}
+ -t 1.19875 -s 1 -d 2 -p cbr -e 210 -c 2 -i 53 -a 2 -x {1.0 2.1 53 ------- null}
- -t 1.19875 -s 1 -d 2 -p cbr -e 210 -c 2 -i 53 -a 2 -x {1.0 2.1 53 ------- null}
h -t 1.19875 -s 1 -d 2 -p cbr -e 210 -c 2 -i 53 -a 2 -x {1.0 2.1 -1 ------- null}
r -t 1.20209 -s 1 -d 2 -p cbr -e 210 -c 2 -i 51 -a 2 -x {1.0 2.1 51 ------- null}
+ -t 1.2025 -s 1 -d 2 -p cbr -e 210 -c 2 -i 54 -a 2 -x {1.0 2.1 54 ------- null}
- -t 1.2025 -s 1 -d 2 -p cbr -e 210 -c 2 -i 54 -a 2 -x {1.0 2.1 54 ------- null}
h -t 1.2025 -s 1 -d 2 -p cbr -e 210 -c 2 -i 54 -a 2 -x {1.0 2.1 -1 ------- null}
r -t 1.20584 -s 1 -d 2 -p cbr -e 210 -c 2 -i 52 -a 2 -x {1.0 2.1 52 ------- null}
+ -t 1.20625 -s 1 -d 2 -p cbr -e 210 -c 2 -i 55 -a 2 -x {1.0 2.1 55 ------- null}
- -t 1.20625 -s 1 -d 2 -p cbr -e 210 -c 2 -i 55 -a 2 -x {1.0 2.1 55 ------- null}
h -t 1.20625 -s 1 -d 2 -p cbr -e 210 -c 2 -i 55 -a 2 -x {1.0 2.1 -1 ------- null}
r -t 1.20959 -s 1 -d 2 -p cbr -e 210 -c 2 -i 53 -a 2 -x {1.0 2.1 53 ------- null}
+ -t 1.21 -s 1 -d 2 -p cbr -e 210 -c 2 -i 56 -a 2 -x {1.0 2.1 56 ------- null}
- -t 1.21 -s 1 -d 2 -p cbr -e 210 -c 2 -i 56 -a 2 -x {1.0 2.1 56 ------- null}
h -t 1.21 -s 1 -d 2 -p cbr -e 210 -c 2 -i 56 -a 2 -x {1.0 2.1 -1 ------- null}
r -t 1.21334 -s 1 -d 2 -p cbr -e 210 -c 2 -i 54 -a 2 -x {1.0 2.1 54 ------- null}
+ -t 1.21375 -s 1 -d 2 -p cbr -e 210 -c 2 -i 57 -a 2 -x {1.0 2.1 57 ------- null}
- -t 1.21375 -s 1 -d 2 -p cbr -e 210 -c 2 -i 57 -a 2 -x {1.0 2.1 57 ------- null}
h -t 1.21375 -s 1 -d 2 -p cbr -e 210 -c 2 -i 57 -a 2 -x {1.0 2.1 -1 ------- null}
r -t 1.21709 -s 1 -d 2 -p cbr -e 210 -c 2 -i 55 -a 2 -x {1.0 2.1 55 ------- null}
+ -t 1.2175 -s 1 -d 2 -p cbr -e 210 -c 2 -i 58 -a 2 -x {1.0 2.1 58 ------- null}
- -t 1.2175 -s 1 -d 2 -p cbr -e 210 -c 2 -i 58 -a 2 -x {1.0 2.1 58 ------- null}
h -t 1.2175 -s 1 -d 2 -p cbr -e 210 -c 2 -i 58 -a 2 -x {1.0 2.1 -1 ------- null}
r -t 1.22084 -s 1 -d 2 -p cbr -e 210 -c 2 -i 56 -a 2 -x {1.0 2.1 56 ------- null}
+ -t 1.22125 -s 1 -d 2 -p cbr -e 210 -c 2 -i 59 -a 2 -x {1.0 2.1 59 ------- null}
- -t 1.22125 -s 1 -d 2 -p cbr -e 210 -c 2 -i 59 -a 2 -x {1.0 2.1 59 ------- null}
h -t 1.22125 -s 1 -d 2 -p cbr -e 210 -c 2 -i 59 -a 2 -x {1.0 2.1 -1 ------- null}
r -t 1.22459 -s 1 -d 2 -p cbr -e 210 -c 2 -i 57 -a 2 -x {1.0 2.1 57 ------- null}
+ -t 1.225 -s 1 -d 2 -p cbr -e 210 -c 2 -i 60 -a 2 -x {1.0 2.1 60 ------- null}
- -t 1.225 -s 1 -d 2 -p cbr -e 210 -c 2 -i 60 -a 2 -x {1.0 2.1 60 ------- null}
h -t 1.225 -s 1 -d 2 -p cbr -e 210 -c 2 -i 60 -a 2 -x {1.0 2.1 -1 ------- null}
r -t 1.22834 -s 1 -d 2 -p cbr -e 210 -c 2 -i 58 -a 2 -x {1.0 2.1 58 ------- null}
+ -t 1.22875 -s 1 -d 2 -p cbr -e 210 -c 2 -i 61 -a 2 -x {1.0 2.1 61 ------- null}
- -t 1.22875 -s 1 -d 2 -p cbr -e 210 -c 2 -i 61 -a 2 -x {1.0 2.1 61 ------- null}
h -t 1.22875 -s 1 -d 2 -p cbr -e 210 -c 2 -i 61 -a 2 -x {1.0 2.1 -1 ------- null}
r -t 1.23209 -s 1 -d 2 -p cbr -e 210 -c 2 -i 59 -a 2 -x {1.0 2.1 59 ------- null}
+ -t 1.2325 -s 1 -d 2 -p cbr -e 210 -c 2 -i 62 -a 2 -x {1.0 2.1 62 ------- null}
- -t 1.2325 -s 1 -d 2 -p cbr -e 210 -c 2 -i 62 -a 2 -x {1.0 2.1 62 ------- null}
h -t 1.2325 -s 1 -d 2 -p cbr -e 210 -c 2 -i 62 -a 2 -x {1.0 2.1 -1 ------- null}
r -t 1.23584 -s 1 -d 2 -p cbr -e 210 -c 2 -i 60 -a 2 -x {1.0 2.1 60 ------- null}
+ -t 1.23624999999999 -s 1 -d 2 -p cbr -e 210 -c 2 -i 63 -a 2 -x {1.0 2.1 63 ------- null}
- -t 1.23624999999999 -s 1 -d 2 -p cbr -e 210 -c 2 -i 63 -a 2 -x {1.0 2.1 63 ------- null}
h -t 1.23624999999999 -s 1 -d 2 -p cbr -e 210 -c 2 -i 63 -a 2 -x {1.0 2.1 -1 ------- null}
r -t 1.23959 -s 1 -d 2 -p cbr -e 210 -c 2 -i 61 -a 2 -x {1.0 2.1 61 ------- null}
+ -t 1.23999999999999 -s 1 -d 2 -p cbr -e 210 -c 2 -i 64 -a 2 -x {1.0 2.1 64 ------- null}
- -t 1.23999999999999 -s 1 -d 2 -p cbr -e 210 -c 2 -i 64 -a 2 -x {1.0 2.1 64 ------- null}
h -t 1.23999999999999 -s 1 -d 2 -p cbr -e 210 -c 2 -i 64 -a 2 -x {1.0 2.1 -1 ------- null}
r -t 1.24334 -s 1 -d 2 -p cbr -e 210 -c 2 -i 62 -a 2 -x {1.0 2.1 62 ------- null}
+ -t 1.24374999999999 -s 1 -d 2 -p cbr -e 210 -c 2 -i 65 -a 2 -x {1.0 2.1 65 ------- null}
- -t 1.24374999999999 -s 1 -d 2 -p cbr -e 210 -c 2 -i 65 -a 2 -x {1.0 2.1 65 ------- null}
h -t 1.24374999999999 -s 1 -d 2 -p cbr -e 210 -c 2 -i 65 -a 2 -x {1.0 2.1 -1 ------- null}
r -t 1.24708999999999 -s 1 -d 2 -p cbr -e 210 -c 2 -i 63 -a 2 -x {1.0 2.1 63 ------- null}
+ -t 1.24749999999999 -s 1 -d 2 -p cbr -e 210 -c 2 -i 66 -a 2 -x {1.0 2.1 66 ------- null}
- -t 1.24749999999999 -s 1 -d 2 -p cbr -e 210 -c 2 -i 66 -a 2 -x {1.0 2.1 66 ------- null}
h -t 1.24749999999999 -s 1 -d 2 -p cbr -e 210 -c 2 -i 66 -a 2 -x {1.0 2.1 -1 ------- null}
r -t 1.25083999999999 -s 1 -d 2 -p cbr -e 210 -c 2 -i 64 -a 2 -x {1.0 2.1 64 ------- null}
+ -t 1.25124999999999 -s 1 -d 2 -p cbr -e 210 -c 2 -i 67 -a 2 -x {1.0 2.1 67 ------- null}
- -t 1.25124999999999 -s 1 -d 2 -p cbr -e 210 -c 2 -i 67 -a 2 -x {1.0 2.1 67 ------- null}
h -t 1.25124999999999 -s 1 -d 2 -p cbr -e 210 -c 2 -i 67 -a 2 -x {1.0 2.1 -1 ------- null}
r -t 1.25458999999999 -s 1 -d 2 -p cbr -e 210 -c 2 -i 65 -a 2 -x {1.0 2.1 65 ------- null}
+ -t 1.25499999999999 -s 1 -d 2 -p cbr -e 210 -c 2 -i 68 -a 2 -x {1.0 2.1 68 ------- null}
- -t 1.25499999999999 -s 1 -d 2 -p cbr -e 210 -c 2 -i 68 -a 2 -x {1.0 2.1 68 ------- null}
h -t 1.25499999999999 -s 1 -d 2 -p cbr -e 210 -c 2 -i 68 -a 2 -x {1.0 2.1 -1 ------- null}
r -t 1.25833999999999 -s 1 -d 2 -p cbr -e 210 -c 2 -i 66 -a 2 -x {1.0 2.1 66 ------- null}
+ -t 1.25874999999999 -s 1 -d 2 -p cbr -e 210 -c 2 -i 69 -a 2 -x {1.0 2.1 69 ------- null}
- -t 1.25874999999999 -s 1 -d 2 -p cbr -e 210 -c 2 -i 69 -a 2 -x {1.0 2.1 69 ------- null}
h -t 1.25874999999999 -s 1 -d 2 -p cbr -e 210 -c 2 -i 69 -a 2 -x {1.0 2.1 -1 ------- null}
r -t 1.26208999999999 -s 1 -d 2 -p cbr -e 210 -c 2 -i 67 -a 2 -x {1.0 2.1 67 ------- null}
+ -t 1.26249999999999 -s 1 -d 2 -p cbr -e 210 -c 2 -i 70 -a 2 -x {1.0 2.1 70 ------- null}
- -t 1.26249999999999 -s 1 -d 2 -p cbr -e 210 -c 2 -i 70 -a 2 -x {1.0 2.1 70 ------- null}
h -t 1.26249999999999 -s 1 -d 2 -p cbr -e 210 -c 2 -i 70 -a 2 -x {1.0 2.1 -1 ------- null}
r -t 1.26583999999999 -s 1 -d 2 -p cbr -e 210 -c 2 -i 68 -a 2 -x {1.0 2.1 68 ------- null}
+ -t 1.26624999999999 -s 1 -d 2 -p cbr -e 210 -c 2 -i 71 -a 2 -x {1.0 2.1 71 ------- null}
- -t 1.26624999999999 -s 1 -d 2 -p cbr -e 210 -c 2 -i 71 -a 2 -x {1.0 2.1 71 ------- null}
h -t 1.26624999999999 -s 1 -d 2 -p cbr -e 210 -c 2 -i 71 -a 2 -x {1.0 2.1 -1 ------- null}
r -t 1.26958999999999 -s 1 -d 2 -p cbr -e 210 -c 2 -i 69 -a 2 -x {1.0 2.1 69 ------- null}
+ -t 1.26999999999999 -s 1 -d 2 -p cbr -e 210 -c 2 -i 72 -a 2 -x {1.0 2.1 72 ------- null}
- -t 1.26999999999999 -s 1 -d 2 -p cbr -e 210 -c 2 -i 72 -a 2 -x {1.0 2.1 72 ------- null}
h -t 1.26999999999999 -s 1 -d 2 -p cbr -e 210 -c 2 -i 72 -a 2 -x {1.0 2.1 -1 ------- null}
r -t 1.27333999999999 -s 1 -d 2 -p cbr -e 210 -c 2 -i 70 -a 2 -x {1.0 2.1 70 ------- null}
+ -t 1.27374999999999 -s 1 -d 2 -p cbr -e 210 -c 2 -i 73 -a 2 -x {1.0 2.1 73 ------- null}
- -t 1.27374999999999 -s 1 -d 2 -p cbr -e 210 -c 2 -i 73 -a 2 -x {1.0 2.1 73 ------- null}
h -t 1.27374999999999 -s 1 -d 2 -p cbr -e 210 -c 2 -i 73 -a 2 -x {1.0 2.1 -1 ------- null}
r -t 1.27708999999999 -s 1 -d 2 -p cbr -e 210 -c 2 -i 71 -a 2 -x {1.0 2.1 71 ------- null}
+ -t 1.27749999999999 -s 1 -d 2 -p cbr -e 210 -c 2 -i 74 -a 2 -x {1.0 2.1 74 ------- null}
- -t 1.27749999999999 -s 1 -d 2 -p cbr -e 210 -c 2 -i 74 -a 2 -x {1.0 2.1 74 ------- null}
h -t 1.27749999999999 -s 1 -d 2 -p cbr -e 210 -c 2 -i 74 -a 2 -x {1.0 2.1 -1 ------- null}
r -t 1.28083999999999 -s 1 -d 2 -p cbr -e 210 -c 2 -i 72 -a 2 -x {1.0 2.1 72 ------- null}
+ -t 1.28124999999999 -s 1 -d 2 -p cbr -e 210 -c 2 -i 75 -a 2 -x {1.0 2.1 75 ------- null}
- -t 1.28124999999999 -s 1 -d 2 -p cbr -e 210 -c 2 -i 75 -a 2 -x {1.0 2.1 75 ------- null}
h -t 1.28124999999999 -s 1 -d 2 -p cbr -e 210 -c 2 -i 75 -a 2 -x {1.0 2.1 -1 ------- null}
r -t 1.28458999999999 -s 1 -d 2 -p cbr -e 210 -c 2 -i 73 -a 2 -x {1.0 2.1 73 ------- null}
+ -t 1.28499999999999 -s 1 -d 2 -p cbr -e 210 -c 2 -i 76 -a 2 -x {1.0 2.1 76 ------- null}
- -t 1.28499999999999 -s 1 -d 2 -p cbr -e 210 -c 2 -i 76 -a 2 -x {1.0 2.1 76 ------- null}
h -t 1.28499999999999 -s 1 -d 2 -p cbr -e 210 -c 2 -i 76 -a 2 -x {1.0 2.1 -1 ------- null}
r -t 1.28833999999999 -s 1 -d 2 -p cbr -e 210 -c 2 -i 74 -a 2 -x {1.0 2.1 74 ------- null}
+ -t 1.28874999999999 -s 1 -d 2 -p cbr -e 210 -c 2 -i 77 -a 2 -x {1.0 2.1 77 ------- null}
- -t 1.28874999999999 -s 1 -d 2 -p cbr -e 210 -c 2 -i 77 -a 2 -x {1.0 2.1 77 ------- null}
h -t 1.28874999999999 -s 1 -d 2 -p cbr -e 210 -c 2 -i 77 -a 2 -x {1.0 2.1 -1 ------- null}
r -t 1.29208999999999 -s 1 -d 2 -p cbr -e 210 -c 2 -i 75 -a 2 -x {1.0 2.1 75 ------- null}
+ -t 1.29249999999999 -s 1 -d 2 -p cbr -e 210 -c 2 -i 78 -a 2 -x {1.0 2.1 78 ------- null}
- -t 1.29249999999999 -s 1 -d 2 -p cbr -e 210 -c 2 -i 78 -a 2 -x {1.0 2.1 78 ------- null}
h -t 1.29249999999999 -s 1 -d 2 -p cbr -e 210 -c 2 -i 78 -a 2 -x {1.0 2.1 -1 ------- null}
r -t 1.29583999999999 -s 1 -d 2 -p cbr -e 210 -c 2 -i 76 -a 2 -x {1.0 2.1 76 ------- null}
+ -t 1.29624999999999 -s 1 -d 2 -p cbr -e 210 -c 2 -i 79 -a 2 -x {1.0 2.1 79 ------- null}
- -t 1.29624999999999 -s 1 -d 2 -p cbr -e 210 -c 2 -i 79 -a 2 -x {1.0 2.1 79 ------- null}
h -t 1.29624999999999 -s 1 -d 2 -p cbr -e 210 -c 2 -i 79 -a 2 -x {1.0 2.1 -1 ------- null}
r -t 1.29958999999999 -s 1 -d 2 -p cbr -e 210 -c 2 -i 77 -a 2 -x {1.0 2.1 77 ------- null}
+ -t 1.29999999999999 -s 1 -d 2 -p cbr -e 210 -c 2 -i 80 -a 2 -x {1.0 2.1 80 ------- null}
- -t 1.29999999999999 -s 1 -d 2 -p cbr -e 210 -c 2 -i 80 -a 2 -x {1.0 2.1 80 ------- null}
h -t 1.29999999999999 -s 1 -d 2 -p cbr -e 210 -c 2 -i 80 -a 2 -x {1.0 2.1 -1 ------- null}
r -t 1.30333999999999 -s 1 -d 2 -p cbr -e 210 -c 2 -i 78 -a 2 -x {1.0 2.1 78 ------- null}
+ -t 1.30374999999999 -s 1 -d 2 -p cbr -e 210 -c 2 -i 81 -a 2 -x {1.0 2.1 81 ------- null}
- -t 1.30374999999999 -s 1 -d 2 -p cbr -e 210 -c 2 -i 81 -a 2 -x {1.0 2.1 81 ------- null}
h -t 1.30374999999999 -s 1 -d 2 -p cbr -e 210 -c 2 -i 81 -a 2 -x {1.0 2.1 -1 ------- null}
r -t 1.30708999999999 -s 1 -d 2 -p cbr -e 210 -c 2 -i 79 -a 2 -x {1.0 2.1 79 ------- null}
+ -t 1.30749999999999 -s 1 -d 2 -p cbr -e 210 -c 2 -i 82 -a 2 -x {1.0 2.1 82 ------- null}
- -t 1.30749999999999 -s 1 -d 2 -p cbr -e 210 -c 2 -i 82 -a 2 -x {1.0 2.1 82 ------- null}
h -t 1.30749999999999 -s 1 -d 2 -p cbr -e 210 -c 2 -i 82 -a 2 -x {1.0 2.1 -1 ------- null}
r -t 1.31083999999999 -s 1 -d 2 -p cbr -e 210 -c 2 -i 80 -a 2 -x {1.0 2.1 80 ------- null}
+ -t 1.31124999999999 -s 1 -d 2 -p cbr -e 210 -c 2 -i 83 -a 2 -x {1.0 2.1 83 ------- null}
- -t 1.31124999999999 -s 1 -d 2 -p cbr -e 210 -c 2 -i 83 -a 2 -x {1.0 2.1 83 ------- null}
h -t 1.31124999999999 -s 1 -d 2 -p cbr -e 210 -c 2 -i 83 -a 2 -x {1.0 2.1 -1 ------- null}
r -t 1.31458999999999 -s 1 -d 2 -p cbr -e 210 -c 2 -i 81 -a 2 -x {1.0 2.1 81 ------- null}
+ -t 1.31499999999999 -s 1 -d 2 -p cbr -e 210 -c 2 -i 84 -a 2 -x {1.0 2.1 84 ------- null}
- -t 1.31499999999999 -s 1 -d 2 -p cbr -e 210 -c 2 -i 84 -a 2 -x {1.0 2.1 84 ------- null}
h -t 1.31499999999999 -s 1 -d 2 -p cbr -e 210 -c 2 -i 84 -a 2 -x {1.0 2.1 -1 ------- null}
r -t 1.31833999999999 -s 1 -d 2 -p cbr -e 210 -c 2 -i 82 -a 2 -x {1.0 2.1 82 ------- null}
+ -t 1.31874999999999 -s 1 -d 2 -p cbr -e 210 -c 2 -i 85 -a 2 -x {1.0 2.1 85 ------- null}
- -t 1.31874999999999 -s 1 -d 2 -p cbr -e 210 -c 2 -i 85 -a 2 -x {1.0 2.1 85 ------- null}
h -t 1.31874999999999 -s 1 -d 2 -p cbr -e 210 -c 2 -i 85 -a 2 -x {1.0 2.1 -1 ------- null}
r -t 1.32208999999999 -s 1 -d 2 -p cbr -e 210 -c 2 -i 83 -a 2 -x {1.0 2.1 83 ------- null}
+ -t 1.32249999999999 -s 1 -d 2 -p cbr -e 210 -c 2 -i 86 -a 2 -x {1.0 2.1 86 ------- null}
- -t 1.32249999999999 -s 1 -d 2 -p cbr -e 210 -c 2 -i 86 -a 2 -x {1.0 2.1 86 ------- null}
h -t 1.32249999999999 -s 1 -d 2 -p cbr -e 210 -c 2 -i 86 -a 2 -x {1.0 2.1 -1 ------- null}
r -t 1.32583999999999 -s 1 -d 2 -p cbr -e 210 -c 2 -i 84 -a 2 -x {1.0 2.1 84 ------- null}
+ -t 1.32624999999999 -s 1 -d 2 -p cbr -e 210 -c 2 -i 87 -a 2 -x {1.0 2.1 87 ------- null}
- -t 1.32624999999999 -s 1 -d 2 -p cbr -e 210 -c 2 -i 87 -a 2 -x {1.0 2.1 87 ------- null}
h -t 1.32624999999999 -s 1 -d 2 -p cbr -e 210 -c 2 -i 87 -a 2 -x {1.0 2.1 -1 ------- null}
r -t 1.32958999999999 -s 1 -d 2 -p cbr -e 210 -c 2 -i 85 -a 2 -x {1.0 2.1 85 ------- null}
+ -t 1.32999999999999 -s 1 -d 2 -p cbr -e 210 -c 2 -i 88 -a 2 -x {1.0 2.1 88 ------- null}
- -t 1.32999999999999 -s 1 -d 2 -p cbr -e 210 -c 2 -i 88 -a 2 -x {1.0 2.1 88 ------- null}