+ 1 1 2 cbr 210 ------- 2 1.0 2.1 0 0
- 1 1 2 cbr 210 ------- 2 1.0 2.1 0 0
+ 1.00375 1 2 cbr 210 ------- 2 1.0 2.1 1 1
- 1.00375 1 2 cbr 210 ------- 2 1.0 2.1 1 1
+ 1.0075 1 2 cbr 210 ------- 2 1.0 2.1 2 2
- 1.0075 1 2 cbr 210 ------- 2 1.0 2.1 2 2
r 1.01084 1 2 cbr 210 ------- 2 1.0 2.1 0 0
+ 1.01125 1 2 cbr 210 ------- 2 1.0 2.1 3 3
- 1.01125 1 2 cbr 210 ------- 2 1.0 2.1 3 3
r 1.01459 1 2 cbr 210 ------- 2 1.0 2.1 1 1
+ 1.015 1 2 cbr 210 ------- 2 1.0 2.1 4 4
- 1.015 1 2 cbr 210 ------- 2 1.0 2.1 4 4
r 1.01834 1 2 cbr 210 ------- 2 1.0 2.1 2 2
+ 1.01875 1 2 cbr 210 ------- 2 1.0 2.1 5 5
- 1.01875 1 2 cbr 210 ------- 2 1.0 2.1 5 5
r 1.02209 1 2 cbr 210 ------- 2 1.0 2.1 3 3
+ 1.0225 1 2 cbr 210 ------- 2 1.0 2.1 6 6
- 1.0225 1 2 cbr 210 ------- 2 1.0 2.1 6 6
r 1.02584 1 2 cbr 210 ------- 2 1.0 2.1 4 4
+ 1.02625 1 2 cbr 210 ------- 2 1.0 2.1 7 7
- 1.02625 1 2 cbr 210 ------- 2 1.0 2.1 7 7
r 1.02959 1 2 cbr 210 ------- 2 1.0 2.1 5 5
+ 1.03 1 2 cbr 210 ------- 2 1.0 2.1 8 8
- 1.03 1 2 cbr 210 ------- 2 1.0 2.1 8 8
r 1.03334 1 2 cbr 210 ------- 2 1.0 2.1 6 6
+ 1.03375 1 2 cbr 210 ------- 2 1.0 2.1 9 9
- 1.03375 1 2 cbr 210 ------- 2 1.0 2.1 9 9
r 1.03709 1 2 cbr 210 ------- 2 1.0 2.1 7 7
+ 1.0375 1 2 cbr 210 ------- 2 1.0 2.1 10 10
- 1.0375 1 2 cbr 210 ------- 2 1.0 2.1 10 10
r 1.04084 1 2 cbr 210 ------- 2 1.0 2.1 8 8
+ 1.04125 1 2 cbr 210 ------- 2 1.0 2.1 11 11
- 1.04125 1 2 cbr 210 ------- 2 1.0 2.1 11 11
r 1.04459 1 2 cbr 210 ------- 2 1.0 2.1 9 9
+ 1.045 1 2 cbr 210 ------- 2 1.0 2.1 12 12
- 1.045 1 2 cbr 210 ------- 2 1.0 2.1 12 12
r 1.04834 1 2 cbr 210 ------- 2 1.0 2.1 10 10
+ 1.04875 1 2 cbr 210 ------- 2 1.0 2.1 13 13
- 1.04875 1 2 cbr 210 ------- 2 1.0 2.1 13 13
r 1.05209 1 2 cbr 210 ------- 2 1.0 2.1 11 11
+ 1.0525 1 2 cbr 210 ------- 2 1.0 2.1 14 14
- 1.0525 1 2 cbr 210 ------- 2 1.0 2.1 14 14
r 1.05584 1 2 cbr 210 ------- 2 1.0 2.1 12 12
+ 1.05625 1 2 cbr 210 ------- 2 1.0 2.1 15 15
- 1.05625 1 2 cbr 210 ------- 2 1.0 2.1 15 15
r 1.05959 1 2 cbr 210 ------- 2 1.0 2.1 13 13
+ 1.06 1 2 cbr 210 ------- 2 1.0 2.1 16 16
- 1.06 1 2 cbr 210 ------- 2 1.0 2.1 16 16
r 1.06334 1 2 cbr 210 ------- 2 1.0 2.1 14 14
+ 1.06375 1 2 cbr 210 ------- 2 1.0 2.1 17 17
- 1.06375 1 2 cbr 210 ------- 2 1.0 2.1 17 17
r 1.06709 1 2 cbr 210 ------- 2 1.0 2.1 15 15
+ 1.0675 1 2 cbr 210 ------- 2 1.0 2.1 18 18
- 1.0675 1 2 cbr 210 ------- 2 1.0 2.1 18 18
r 1.07084 1 2 cbr 210 ------- 2 1.0 2.1 16 16
+ 1.07125 1 2 cbr 210 ------- 2 1.0 2.1 19 19
- 1.07125 1 2 cbr 210 ------- 2 1.0 2.1 19 19
r 1.07459 1 2 cbr 210 ------- 2 1.0 2.1 17 17
+ 1.075 1 2 cbr 210 ------- 2 1.0 2.1 20 20
- 1.075 1 2 cbr 210 ------- 2 1.0 2.1 20 20
r 1.07834 1 2 cbr 210 ------- 2 1.0 2.1 18 18
+ 1.07875 1 2 cbr 210 ------- 2 1.0 2.1 21 21
- 1.07875 1 2 cbr 210 ------- 2 1.0 2.1 21 21
r 1.08209 1 2 cbr 210 ------- 2 1.0 2.1 19 19
+ 1.0825 1 2 cbr 210 ------- 2 1.0 2.1 22 22
- 1.0825 1 2 cbr 210 ------- 2 1.0 2.1 22 22
r 1.08584 1 2 cbr 210 ------- 2 1.0 2.1 20 20
+ 1.08625 1 2 cbr 210 ------- 2 1.0 2.1 23 23
- 1.08625 1 2 cbr 210 ------- 2 1.0 2.1 23 23
r 1.08959 1 2 cbr 210 ------- 2 1.0 2.1 21 21
+ 1.09 1 2 cbr 210 ------- 2 1.0 2.1 24 24
- 1.09 1 2 cbr 210 ------- 2 1.0 2.1 24 24
r 1.09334 1 2 cbr 210 ------- 2 1.0 2.1 22 22
+ 1.09375 1 2 cbr 210 ------- 2 1.0 2.1 25 25
- 1.09375 1 2 cbr 210 ------- 2 1.0 2.1 25 25
r 1.09709 1 2 cbr 210 ------- 2 1.0 2.1 23 23
+ 1.0975 1 2 cbr 210 ------- 2 1.0 2.1 26 26
- 1.0975 1 2 cbr 210 ------- 2 1.0 2.1 26 26
r 1.10084 1 2 cbr 210 ------- 2 1.0 2.1 24 24
+ 1.10125 1 2 cbr 210 ------- 2 1.0 2.1 27 27
- 1.10125 1 2 cbr 210 ------- 2 1.0 2.1 27 27
r 1.10459 1 2 cbr 210 ------- 2 1.0 2.1 25 25
+ 1.105 1 2 cbr 210 ------- 2 1.0 2.1 28 28
- 1.105 1 2 cbr 210 ------- 2 1.0 2.1 28 28
r 1.10834 1 2 cbr 210 ------- 2 1.0 2.1 26 26
+ 1.10875 1 2 cbr 210 ------- 2 1.0 2.1 29 29
- 1.10875 1 2 cbr 210 ------- 2 1.0 2.1 29 29
r 1.11209 1 2 cbr 210 ------- 2 1.0 2.1 27 27
+ 1.1125 1 2 cbr 210 ------- 2 1.0 2.1 30 30
- 1.1125 1 2 cbr 210 ------- 2 1.0 2.1 30 30
r 1.11584 1 2 cbr 210 ------- 2 1.0 2.1 28 28
+ 1.11625 1 2 cbr 210 ------- 2 1.0 2.1 31 31
- 1.11625 1 2 cbr 210 ------- 2 1.0 2.1 31 31
r 1.11959 1 2 cbr 210 ------- 2 1.0 2.1 29 29
+ 1.12 1 2 cbr 210 ------- 2 1.0 2.1 32 32
- 1.12 1 2 cbr 210 ------- 2 1.0 2.1 32 32
r 1.12334 1 2 cbr 210 ------- 2 1.0 2.1 30 30
+ 1.12375 1 2 cbr 210 ------- 2 1.0 2.1 33 33
- 1.12375 1 2 cbr 210 ------- 2 1.0 2.1 33 33
r 1.12709 1 2 cbr 210 ------- 2 1.0 2.1 31 31
+ 1.1275 1 2 cbr 210 ------- 2 1.0 2.1 34 34
- 1.1275 1 2 cbr 210 ------- 2 1.0 2.1 34 34
r 1.13084 1 2 cbr 210 ------- 2 1.0 2.1 32 32
+ 1.13125 1 2 cbr 210 ------- 2 1.0 2.1 35 35
- 1.13125 1 2 cbr 210 ------- 2 1.0 2.1 35 35
r 1.13459 1 2 cbr 210 ------- 2 1.0 2.1 33 33
+ 1.135 1 2 cbr 210 ------- 2 1.0 2.1 36 36
- 1.135 1 2 cbr 210 ------- 2 1.0 2.1 36 36
r 1.13834 1 2 cbr 210 ------- 2 1.0 2.1 34 34
+ 1.13875 1 2 cbr 210 ------- 2 1.0 2.1 37 37
- 1.13875 1 2 cbr 210 ------- 2 1.0 2.1 37 37
r 1.14209 1 2 cbr 210 ------- 2 1.0 2.1 35 35
+ 1.1425 1 2 cbr 210 ------- 2 1.0 2.1 38 38
- 1.1425 1 2 cbr 210 ------- 2 1.0 2.1 38 38
r 1.14584 1 2 cbr 210 ------- 2 1.0 2.1 36 36
+ 1.14625 1 2 cbr 210 ------- 2 1.0 2.1 39 39
- 1.14625 1 2 cbr 210 ------- 2 1.0 2.1 39 39
r 1.14959 1 2 cbr 210 ------- 2 1.0 2.1 37 37
+ 1.15 1 2 cbr 210 ------- 2 1.0 2.1 40 40
- 1.15 1 2 cbr 210 ------- 2 1.0 2.1 40 40
r 1.15334 1 2 cbr 210 ------- 2 1.0 2.1 38 38
+ 1.15375 1 2 cbr 210 ------- 2 1.0 2.1 41 41
- 1.15375 1 2 cbr 210 ------- 2 1.0 2.1 41 41
r 1.15709 1 2 cbr 210 ------- 2 1.0 2.1 39 39
+ 1.1575 1 2 cbr 210 ------- 2 1.0 2.1 42 42
- 1.1575 1 2 cbr 210 ------- 2 1.0 2.1 42 42
r 1.16084 1 2 cbr 210 ------- 2 1.0 2.1 40 40
+ 1.16125 1 2 cbr 210 ------- 2 1.0 2.1 43 43
- 1.16125 1 2 cbr 210 ------- 2 1.0 2.1 43 43
r 1.16459 1 2 cbr 210 ------- 2 1.0 2.1 41 41
+ 1.165 1 2 cbr 210 ------- 2 1.0 2.1 44 44
- 1.165 1 2 cbr 210 ------- 2 1.0 2.1 44 44
r 1.16834 1 2 cbr 210 ------- 2 1.0 2.1 42 42
+ 1.16875 1 2 cbr 210 ------- 2 1.0 2.1 45 45
- 1.16875 1 2 cbr 210 ------- 2 1.0 2.1 45 45
r 1.17209 1 2 cbr 210 ------- 2 1.0 2.1 43 43
+ 1.1725 1 2 cbr 210 ------- 2 1.0 2.1 46 46
- 1.1725 1 2 cbr 210 ------- 2 1.0 2.1 46 46
r 1.17584 1 2 cbr 210 ------- 2 1.0 2.1 44 44
+ 1.17625 1 2 cbr 210 ------- 2 1.0 2.1 47 47
- 1.17625 1 2 cbr 210 ------- 2 1.0 2.1 47 47
r 1.17959 1 2 cbr 210 ------- 2 1.0 2.1 45 45
+ 1.18 1 2 cbr 210 ------- 2 1.0 2.1 48 48
- 1.18 1 2 cbr 210 ------- 2 1.0 2.1 48 48
r 1.18334 1 2 cbr 210 ------- 2 1.0 2.1 46 46
+ 1.18375 1 2 cbr 210 ------- 2 1.0 2.1 49 49
- 1.18375 1 2 cbr 210 ------- 2 1.0 2.1 49 49
r 1.18709 1 2 cbr 210 ------- 2 1.0 2.1 47 47
+ 1.1875 1 2 cbr 210 ------- 2 1.0 2.1 50 50
- 1.1875 1 2 cbr 210 ------- 2 1.0 2.1 50 50
r 1.19084 1 2 cbr 210 ------- 2 1.0 2.1 48 48
+ 1.19125 1 2 cbr 210 ------- 2 1.0 2.1 51 51
- 1.19125 1 2 cbr 210 ------- 2 1.0 2.1 51 51
r 1.19459 1 2 cbr 210 ------- 2 1.0 2.1 49 49
+ 1.195 1 2 cbr 210 ------- 2 1.0 2.1 52 52
- 1.195 1 2 cbr 210 ------- 2 1.0 2.1 52 52
r 1.19834 1 2 cbr 210 ------- 2 1.0 2.1 50 50
+ 1.19875 1 2 cbr 210 ------- 2 1.0 2.1 53 53
- 1.19875 1 2 cbr 210 ------- 2 1.0 2.1 53 53
r 1.20209 1 2 cbr 210 ------- 2 1.0 2.1 51 51
+ 1.2025 1 2 cbr 210 ------- 2 1.0 2.1 54 54
- 1.2025 1 2 cbr 210 ------- 2 1.0 2.1 54 54
r 1.20584 1 2 cbr 210 ------- 2 1.0 2.1 52 52
+ 1.20625 1 2 cbr 210 ------- 2 1.0 2.1 55 55
- 1.20625 1 2 cbr 210 ------- 2 1.0 2.1 55 55
r 1.20959 1 2 cbr 210 ------- 2 1.0 2.1 53 53
+ 1.21 1 2 cbr 210 ------- 2 1.0 2.1 56 56
- 1.21 1 2 cbr 210 ------- 2 1.0 2.1 56 56
r 1.21334 1 2 cbr 210 ------- 2 1.0 2.1 54 54
+ 1.21375 1 2 cbr 210 ------- 2 1.0 2.1 57 57
- 1.21375 1 2 cbr 210 ------- 2 1.0 2.1 57 57
r 1.21709 1 2 cbr 210 ------- 2 1.0 2.1 55 55
+ 1.2175 1 2 cbr 210 ------- 2 1.0 2.1 58 58
- 1.2175 1 2 cbr 210 ------- 2 1.0 2.1 58 58
r 1.22084 1 2 cbr 210 ------- 2 1.0 2.1 56 56
+ 1.22125 1 2 cbr 210 ------- 2 1.0 2.1 59 59
- 1.22125 1 2 cbr 210 ------- 2 1.0 2.1 59 59
r 1.22459 1 2 cbr 210 ------- 2 1.0 2.1 57 57
+ 1.225 1 2 cbr 210 ------- 2 1.0 2.1 60 60
- 1.225 1 2 cbr 210 ------- 2 1.0 2.1 60 60
r 1.22834 1 2 cbr 210 ------- 2 1.0 2.1 58 58
+ 1.22875 1 2 cbr 210 ------- 2 1.0 2.1 61 61
- 1.22875 1 2 cbr 210 ------- 2 1.0 2.1 61 61
r 1.23209 1 2 cbr 210 ------- 2 1.0 2.1 59 59
+ 1.2325 1 2 cbr 210 ------- 2 1.0 2.1 62 62
- 1.2325 1 2 cbr 210 ------- 2 1.0 2.1 62 62
r 1.23584 1 2 cbr 210 ------- 2 1.0 2.1 60 60
+ 1.23625 1 2 cbr 210 ------- 2 1.0 2.1 63 63
- 1.23625 1 2 cbr 210 ------- 2 1.0 2.1 63 63
r 1.23959 1 2 cbr 210 ------- 2 1.0 2.1 61 61
+ 1.24 1 2 cbr 210 ------- 2 1.0 2.1 64 64
- 1.24 1 2 cbr 210 ------- 2 1.0 2.1 64 64
r 1.24334 1 2 cbr 210 ------- 2 1.0 2.1 62 62
+ 1.24375 1 2 cbr 210 ------- 2 1.0 2.1 65 65
- 1.24375 1 2 cbr 210 ------- 2 1.0 2.1 65 65
r 1.24709 1 2 cbr 210 ------- 2 1.0 2.1 63 63
+ 1.2475 1 2 cbr 210 ------- 2 1.0 2.1 66 66
- 1.2475 1 2 cbr 210 ------- 2 1.0 2.1 66 66
r 1.25084 1 2 cbr 210 ------- 2 1.0 2.1 64 64
+ 1.25125 1 2 cbr 210 ------- 2 1.0 2.1 67 67
- 1.25125 1 2 cbr 210 ------- 2 1.0 2.1 67 67
r 1.25459 1 2 cbr 210 ------- 2 1.0 2.1 65 65
+ 1.255 1 2 cbr 210 ------- 2 1.0 2.1 68 68
- 1.255 1 2 cbr 210 ------- 2 1.0 2.1 68 68
r 1.25834 1 2 cbr 210 ------- 2 1.0 2.1 66 66
+ 1.25875 1 2 cbr 210 ------- 2 1.0 2.1 69 69
- 1.25875 1 2 cbr 210 ------- 2 1.0 2.1 69 69
r 1.26209 1 2 cbr 210 ------- 2 1.0 2.1 67 67
+ 1.2625 1 2 cbr 210 ------- 2 1.0 2.1 70 70
- 1.2625 1 2 cbr 210 ------- 2 1.0 2.1 70 70
r 1.26584 1 2 cbr 210 ------- 2 1.0 2.1 68 68
+ 1.26625 1 2 cbr 210 ------- 2 1.0 2.1 71 71
- 1.26625 1 2 cbr 210 ------- 2 1.0 2.1 71 71
r 1.26959 1 2 cbr 210 ------- 2 1.0 2.1 69 69
+ 1.27 1 2 cbr 210 ------- 2 1.0 2.1 72 72
- 1.27 1 2 cbr 210 ------- 2 1.0 2.1 72 72
r 1.27334 1 2 cbr 210 ------- 2 1.0 2.1 70 70
+ 1.27375 1 2 cbr 210 ------- 2 1.0 2.1 73 73
- 1.27375 1 2 cbr 210 ------- 2 1.0 2.1 73 73
r 1.27709 1 2 cbr 210 ------- 2 1.0 2.1 71 71
+ 1.2775 1 2 cbr 210 ------- 2 1.0 2.1 74 74
- 1.2775 1 2 cbr 210 ------- 2 1.0 2.1 74 74
r 1.28084 1 2 cbr 210 ------- 2 1.0 2.1 72 72
+ 1.28125 1 2 cbr 210 ------- 2 1.0 2.1 75 75
- 1.28125 1 2 cbr 210 ------- 2 1.0 2.1 75 75
r 1.28459 1 2 cbr 210 ------- 2 1.0 2.1 73 73
+ 1.285 1 2 cbr 210 ------- 2 1.0 2.1 76 76
- 1.285 1 2 cbr 210 ------- 2 1.0 2.1 76 76
r 1.28834 1 2 cbr 210 ------- 2 1.0 2.1 74 74
+ 1.28875 1 2 cbr 210 ------- 2 1.0 2.1 77 77
- 1.28875 1 2 cbr 210 ------- 2 1.0 2.1 77 77
r 1.29209 1 2 cbr 210 ------- 2 1.0 2.1 75 75
+ 1.2925 1 2 cbr 210 ------- 2 1.0 2.1 78 78
- 1.2925 1 2 cbr 210 ------- 2 1.0 2.1 78 78
r 1.29584 1 2 cbr 210 ------- 2 1.0 2.1 76 76
+ 1.29625 1 2 cbr 210 ------- 2 1.0 2.1 79 79
- 1.29625 1 2 cbr 210 ------- 2 1.0 2.1 79 79
r 1.29959 1 2 cbr 210 ------- 2 1.0 2.1 77 77
+ 1.3 1 2 cbr 210 ------- 2 1.0 2.1 80 80
- 1.3 1 2 cbr 210 ------- 2 1.0 2.1 80 80
r 1.30334 1 2 cbr 210 ------- 2 1.0 2.1 78 78
+ 1.30375 1 2 cbr 210 ------- 2 1.0 2.1 81 81
- 1.30375 1 2 cbr 210 ------- 2 1.0 2.1 81 81
r 1.30709 1 2 cbr 210 ------- 2 1.0 2.1 79 79
+ 1.3075 1 2 cbr 210 ------- 2 1.0 2.1 82 82
- 1.3075 1 2 cbr 210 ------- 2 1.0 2.1 82 82
r 1.31084 1 2 cbr 210 ------- 2 1.0 2.1 80 80
+ 1.31125 1 2 cbr 210 ------- 2 1.0 2.1 83 83
- 1.31125 1 2 cbr 210 ------- 2 1.0 2.1 83 83
r 1.31459 1 2 cbr 210 ------- 2 1.0 2.1 81 81
+ 1.315 1 2 cbr 210 ------- 2 1.0 2.1 84 84
- 1.315 1 2 cbr 210 ------- 2 1.0 2.1 84 84
r 1.31834 1 2 cbr 210 ------- 2 1.0 2.1 82 82
+ 1.31875 1 2 cbr 210 ------- 2 1.0 2.1 85 85
- 1.31875 1 2 cbr 210 ------- 2 1.0 2.1 85 85
r 1.32209 1 2 cbr 210 ------- 2 1.0 2.1 83 83
+ 1.3225 1 2 cbr 210 ------- 2 1.0 2.1 86 86
- 1.3225 1 2 cbr 210 ------- 2 1.0 2.1 86 86
r 1.32584 1 2 cbr 210 ------- 2 1.0 2.1 84 84
+ 1.32625 1 2 cbr 210 ------- 2 1.0 2.1 87 87
- 1.32625 1 2 cbr 210 ------- 2 1.0 2.1 87 87
r 1.32959 1 2 cbr 210 ------- 2 1.0 2.1 85 85
+ 1.33 1 2 cbr 210 ------- 2 1.0 2.1 88 88
- 1.33 1 2 cbr 210 ------- 2 1.0 2.1 88 88
r 1.33334 1 2 cbr 210 ------- 2 1.0 2.1 86 86
+ 1.33375 1 2 cbr 210 ------- 2 1.0 2.1 89 89
- 1.33375 1 2 cbr 210 ------- 2 1.0 2.1 89 89
r 1.33709 1 2 cbr 210 ------- 2 1.0 2.1 87 87
+ 1.3375 1 2 cbr 210 ------- 2 1.0 2.1 90 90
- 1.3375 1 2 cbr 210 ------- 2 1.0 2.1 90 90
r 1.34084 1 2 cbr 210 ------- 2 1.0 2.1 88 88
+ 1.34125 1 2 cbr 210 ------- 2 1.0 2.1 91 91
- 1.34125 1 2 cbr 210 ------- 2 1.0 2.1 91 91
r 1.34459 1 2 cbr 210 ------- 2 1.0 2.1 89 89
+ 1.345 1 2 cbr 210 ------- 2 1.0 2.1 92 92
- 1.345 1 2 cbr 210 ------- 2 1.0 2.1 92 92
r 1.34834 1 2 cbr 210 ------- 2 1.0 2.1 90 90
+ 1.34875 1 2 cbr 210 ------- 2 1.0 2.1 93 93
- 1.34875 1 2 cbr 210 ------- 2 1.0 2.1 93 93
r 1.35209 1 2 cbr 210 ------- 2 1.0 2.1 91 91
+ 1.3525 1 2 cbr 210 ------- 2 1.0 2.1 94 94
- 1.3525 1 2 cbr 210 ------- 2 1.0 2.1 94 94
r 1.35584 1 2 cbr 210 ------- 2 1.0 2.1 92 92
+ 1.35625 1 2 cbr 210 ------- 2 1.0 2.1 95 95
- 1.35625 1 2 cbr 210 ------- 2 1.0 2.1 95 95
r 1.35959 1 2 cbr 210 ------- 2 1.0 2.1 93 93
+ 1.36 1 2 cbr 210 ------- 2 1.0 2.1 96 96
- 1.36 1 2 cbr 210 ------- 2 1.0 2.1 96 96
r 1.36334 1 2 cbr 210 ------- 2 1.0 2.1 94 94
+ 1.36375 1 2 cbr 210 ------- 2 1.0 2.1 97 97
- 1.36375 1 2 cbr 210 ------- 2 1.0 2.1 97 97
r 1.36709 1 2 cbr 210 ------- 2 1.0 2.1 95 95
+ 1.3675 1 2 cbr 210 ------- 2 1.0 2.1 98 98
- 1.3675 1 2 cbr 210 ------- 2 1.0 2.1 98 98
r 1.37084 1 2 cbr 210 ------- 2 1.0 2.1 96 96
+ 1.37125 1 2 cbr 210 ------- 2 1.0 2.1 99 99
- 1.37125 1 2 cbr 210 ------- 2 1.0 2.1 99 99
r 1.37459 1 2 cbr 210 ------- 2 1.0 2.1 97 97
+ 1.375 1 2 cbr 210 ------- 2 1.0 2.1 100 100
- 1.375 1 2 cbr 210 ------- 2 1.0 2.1 100 100
r 1.37834 1 2 cbr 210 ------- 2 1.0 2.1 98 98
+ 1.37875 1 2 cbr 210 ------- 2 1.0 2.1 101 101
- 1.37875 1 2 cbr 210 ------- 2 1.0 2.1 101 101
r 1.38209 1 2 cbr 210 ------- 2 1.0 2.1 99 99
+ 1.3825 1 2 cbr 210 ------- 2 1.0 2.1 102 102
- 1.3825 1 2 cbr 210 ------- 2 1.0 2.1 102 102
r 1.38584 1 2 cbr 210 ------- 2 1.0 2.1 100 100
+ 1.38625 1 2 cbr 210 ------- 2 1.0 2.1 103 103
- 1.38625 1 2 cbr 210 ------- 2 1.0 2.1 103 103
r 1.38959 1 2 cbr 210 ------- 2 1.0 2.1 101 101
+ 1.39 1 2 cbr 210 ------- 2 1.0 2.1 104 104
- 1.39 1 2 cbr 210 ------- 2 1.0 2.1 104 104
r 1.39334 1 2 cbr 210 ------- 2 1.0 2.1 102 102
+ 1.39375 1 2 cbr 210 ------- 2 1.0 2.1 105 105
- 1.39375 1 2 cbr 210 ------- 2 1.0 2.1 105 105
r 1.39709 1 2 cbr 210 ------- 2 1.0 2.1 103 103
+ 1.3975 1 2 cbr 210 ------- 2 1.0 2.1 106 106
- 1.3975 1 2 cbr 210 ------- 2 1.0 2.1 106 106
r 1.40084 1 2 cbr 210 ------- 2 1.0 2.1 104 104
+ 1.40125 1 2 cbr 210 ------- 2 1.0 2.1 107 107
- 1.40125 1 2 cbr 210 ------- 2 1.0 2.1 107 107
r 1.40459 1 2 cbr 210 ------- 2 1.0 2.1 105 105
+ 1.405 1 2 cbr 210 ------- 2 1.0 2.1 108 108
- 1.405 1 2 cbr 210 ------- 2 1.0 2.1 108 108
r 1.40834 1 2 cbr 210 ------- 2 1.0 2.1 106 106
+ 1.40875 1 2 cbr 210 ------- 2 1.0 2.1 109 109
- 1.40875 1 2 cbr 210 ------- 2 1.0 2.1 109 109
r 1.41209 1 2 cbr 210 ------- 2 1.0 2.1 107 107
+ 1.4125 1 2 cbr 210 ------- 2 1.0 2.1 110 110
- 1.4125 1 2 cbr 210 ------- 2 1.0 2.1 110 110
r 1.41584 1 2 cbr 210 ------- 2 1.0 2.1 108 108
+ 1.41625 1 2 cbr 210 ------- 2 1.0 2.1 111 111
- 1.41625 1 2 cbr 210 ------- 2 1.0 2.1 111 111
r 1.41959 1 2 cbr 210 ------- 2 1.0 2.1 109 109
+ 1.42 1 2 cbr 210 ------- 2 1.0 2.1 112 112
- 1.42 1 2 cbr 210 ------- 2 1.0 2.1 112 112
r 1.42334 1 2 cbr 210 ------- 2 1.0 2.1 110 110
+ 1.42375 1 2 cbr 210 ------- 2 1.0 2.1 113 113
- 1.42375 1 2 cbr 210 ------- 2 1.0 2.1 113 113
r 1.42709 1 2 cbr 210 ------- 2 1.0 2.1 111 111
+ 1.4275 1 2 cbr 210 ------- 2 1.0 2.1 114 114
- 1.4275 1 2 cbr 210 ------- 2 1.0 2.1 114 114
r 1.43084 1 2 cbr 210 ------- 2 1.0 2.1 112 112
+ 1.43125 1 2 cbr 210 ------- 2 1.0 2.1 115 115
- 1.43125 1 2 cbr 210 ------- 2 1.0 2.1 115 115
r 1.43459 1 2 cbr 210 ------- 2 1.0 2.1 113 113
+ 1.435 1 2 cbr 210 ------- 2 1.0 2.1 116 116
- 1.435 1 2 cbr 210 ------- 2 1.0 2.1 116 116
r 1.43834 1 2 cbr 210 ------- 2 1.0 2.1 114 114
+ 1.43875 1 2 cbr 210 ------- 2 1.0 2.1 117 117
- 1.43875 1 2 cbr 210 ------- 2 1.0 2.1 117 117
r 1.44209 1 2 cbr 210 ------- 2 1.0 2.1 115 115
+ 1.4425 1 2 cbr 210 ------- 2 1.0 2.1 118 118
- 1.4425 1 2 cbr 210 ------- 2 1.0 2.1 118 118
r 1.44584 1 2 cbr 210 ------- 2 1.0 2.1 116 116
+ 1.44625 1 2 cbr 210 ------- 2 1.0 2.1 119 119
- 1.44625 1 2 cbr 210 ------- 2 1.0 2.1 119 119
r 1.44959 1 2 cbr 210 ------- 2 1.0 2.1 117 117
+ 1.45 1 2 cbr 210 ------- 2 1.0 2.1 120 120
- 1.45 1 2 cbr 210 ------- 2 1.0 2.1 120 120
r 1.45334 1 2 cbr 210 ------- 2 1.0 2.1 118 118
+ 1.45375 1 2 cbr 210 ------- 2 1.0 2.1 121 121
- 1.45375 1 2 cbr 210 ------- 2 1.0 2.1 121 121
r 1.45709 1 2 cbr 210 ------- 2 1.0 2.1 119 119
+ 1.4575 1 2 cbr 210 ------- 2 1.0 2.1 122 122
- 1.4575 1 2 cbr 210 ------- 2 1.0 2.1 122 122
r 1.46084 1 2 cbr 210 ------- 2 1.0 2.1 120 120
+ 1.46125 1 2 cbr 210 ------- 2 1.0 2.1 123 123
- 1.46125 1 2 cbr 210 ------- 2 1.0 2.1 123 123
r 1.46459 1 2 cbr 210 ------- 2 1.0 2.1 121 121
+ 1.465 1 2 cbr 210 ------- 2 1.0 2.1 124 124
- 1.465 1 2 cbr 210 ------- 2 1.0 2.1 124 124
r 1.46834 1 2 cbr 210 ------- 2 1.0 2.1 122 122
+ 1.46875 1 2 cbr 210 ------- 2 1.0 2.1 125 125
- 1.46875 1 2 cbr 210 ------- 2 1.0 2.1 125 125
r 1.47209 1 2 cbr 210 ------- 2 1.0 2.1 123 123
+ 1.4725 1 2 cbr 210 ------- 2 1.0 2.1 126 126
- 1.4725 1 2 cbr 210 ------- 2 1.0 2.1 126 126
r 1.47584 1 2 cbr 210 ------- 2 1.0 2.1 124 124
+ 1.47625 1 2 cbr 210 ------- 2 1.0 2.1 127 127
- 1.47625 1 2 cbr 210 ------- 2 1.0 2.1 127 127
r 1.47959 1 2 cbr 210 ------- 2 1.0 2.1 125 125
+ 1.48 1 2 cbr 210 ------- 2 1.0 2.1 128 128
- 1.48 1 2 cbr 210 ------- 2 1.0 2.1 128 128
r 1.48334 1 2 cbr 210 ------- 2 1.0 2.1 126 126
+ 1.48375 1 2 cbr 210 ------- 2 1.0 2.1 129 129
- 1.48375 1 2 cbr 210 ------- 2 1.0 2.1 129 129
r 1.48709 1 2 cbr 210 ------- 2 1.0 2.1 127 127
+ 1.4875 1 2 cbr 210 ------- 2 1.0 2.1 130 130
- 1.4875 1 2 cbr 210 ------- 2 1.0 2.1 130 130
r 1.49084 1 2 cbr 210 ------- 2 1.0 2.1 128 128
+ 1.49125 1 2 cbr 210 ------- 2 1.0 2.1 131 131
- 1.49125 1 2 cbr 210 ------- 2 1.0 2.1 131 131
r 1.49459 1 2 cbr 210 ------- 2 1.0 2.1 129 129
+ 1.495 1 2 cbr 210 ------- 2 1.0 2.1 132 132
- 1.495 1 2 cbr 210 ------- 2 1.0 2.1 132 132
r 1.49834 1 2 cbr 210 ------- 2 1.0 2.1 130 130
+ 1.49875 1 2 cbr 210 ------- 2 1.0 2.1 133 133
- 1.49875 1 2 cbr 210 ------- 2 1.0 2.1 133 133
+ 1.5 0 2 tcp 40 ------- 1 0.0 2.0 0 134
- 1.5 0 2 tcp 40 ------- 1 0.0 2.0 0 134
r 1.50209 1 2 cbr 210 ------- 2 1.0 2.1 131 131
+ 1.5025 1 2 cbr 210 ------- 2 1.0 2.1 134 135
- 1.5025 1 2 cbr 210 ------- 2 1.0 2.1 134 135
r 1.50584 1 2 cbr 210 ------- 2 1.0 2.1 132 132
+ 1.50625 1 2 cbr 210 ------- 2 1.0 2.1 135 136
- 1.50625 1 2 cbr 210 ------- 2 1.0 2.1 135 136
r 1.50959 1 2 cbr 210 ------- 2 1.0 2.1 133 133
+ 1.51 1 2 cbr 210 ------- 2 1.0 2.1 136 137
- 1.51 1 2 cbr 210 ------- 2 1.0 2.1 136 137
r 1.5108 0 2 tcp 40 ------- 1 0.0 2.0 0 134
+ 1.5108 2 0 ack 40 ------- 1 2.0 0.0 0 138
- 1.5108 2 0 ack 40 ------- 1 2.0 0.0 0 138
r 1.51334 1 2 cbr 210 ------- 2 1.0 2.1 134 135
+ 1.51375 1 2 cbr 210 ------- 2 1.0 2.1 137 139
- 1.51375 1 2 cbr 210 ------- 2 1.0 2.1 137 139
r 1.51709 1 2 cbr 210 ------- 2 1.0 2.1 135 136
+ 1.5175 1 2 cbr 210 ------- 2 1.0 2.1 138 140
- 1.5175 1 2 cbr 210 ------- 2 1.0 2.1 138 140
r 1.52084 1 2 cbr 210 ------- 2 1.0 2.1 136 137
+ 1.52125 1 2 cbr 210 ------- 2 1.0 2.1 139 141
- 1.52125 1 2 cbr 210 ------- 2 1.0 2.1 139 141
r 1.5216 2 0 ack 40 ------- 1 2.0 0.0 0 138
+ 1.5216 0 2 tcp 1040 ------- 1 0.0 2.0 1 142
- 1.5216 0 2 tcp 1040 ------- 1 0.0 2.0 1 142
+ 1.5216 0 2 tcp 1040 ------- 1 0.0 2.0 2 143
r 1.52459 1 2 cbr 210 ------- 2 1.0 2.1 137 139
+ 1.525 1 2 cbr 210 ------- 2 1.0 2.1 140 144
- 1.525 1 2 cbr 210 ------- 2 1.0 2.1 140 144
r 1.52834 1 2 cbr 210 ------- 2 1.0 2.1 138 140
+ 1.52875 1 2 cbr 210 ------- 2 1.0 2.1 141 145
- 1.52875 1 2 cbr 210 ------- 2 1.0 2.1 141 145
r 1.53209 1 2 cbr 210 ------- 2 1.0 2.1 139 141
+ 1.5325 1 2 cbr 210 ------- 2 1.0 2.1 142 146
- 1.5325 1 2 cbr 210 ------- 2 1.0 2.1 142 146
r 1.53584 1 2 cbr 210 ------- 2 1.0 2.1 140 144
+ 1.53625 1 2 cbr 210 ------- 2 1.0 2.1 143 147
- 1.53625 1 2 cbr 210 ------- 2 1.0 2.1 143 147
r 1.53959 1 2 cbr 210 ------- 2 1.0 2.1 141 145
+ 1.54 1 2 cbr 210 ------- 2 1.0 2.1 144 148
- 1.54 1 2 cbr 210 ------- 2 1.0 2.1 144 148
- 1.5424 0 2 tcp 1040 ------- 1 0.0 2.0 2 143
r 1.54334 1 2 cbr 210 ------- 2 1.0 2.1 142 146
+ 1.54375 1 2 cbr 210 ------- 2 1.0 2.1 145 149
- 1.54375 1 2 cbr 210 ------- 2 1.0 2.1 145 149
r 1.54709 1 2 cbr 210 ------- 2 1.0 2.1 143 147
+ 1.5475 1 2 cbr 210 ------- 2 1.0 2.1 146 150
- 1.5475 1 2 cbr 210 ------- 2 1.0 2.1 146 150
r 1.55084 1 2 cbr 210 ------- 2 1.0 2.1 144 148
+ 1.55125 1 2 cbr 210 ------- 2 1.0 2.1 147 151
- 1.55125 1 2 cbr 210 ------- 2 1.0 2.1 147 151
r 1.5524 0 2 tcp 1040 ------- 1 0.0 2.0 1 142
+ 1.5524 2 0 ack 40 ------- 1 2.0 0.0 1 152
- 1.5524 2 0 ack 40 ------- 1 2.0 0.0 1 152
r 1.55459 1 2 cbr 210 ------- 2 1.0 2.1 145 149
+ 1.555 1 2 cbr 210 ------- 2 1.0 2.1 148 153
- 1.555 1 2 cbr 210 ------- 2 1.0 2.1 148 153
r 1.55834 1 2 cbr 210 ------- 2 1.0 2.1 146 150
+ 1.55875 1 2 cbr 210 ------- 2 1.0 2.1 149 154
- 1.55875 1 2 cbr 210 ------- 2 1.0 2.1 149 154
r 1.56209 1 2 cbr 210 ------- 2 1.0 2.1 147 151
+ 1.5625 1 2 cbr 210 ------- 2 1.0 2.1 150 155
- 1.5625 1 2 cbr 210 ------- 2 1.0 2.1 150 155
r 1.5632 2 0 ack 40 ------- 1 2.0 0.0 1 152
+ 1.5632 0 2 tcp 1040 ------- 1 0.0 2.0 3 156
- 1.5632 0 2 tcp 1040 ------- 1 0.0 2.0 3 156
+ 1.5632 0 2 tcp 1040 ------- 1 0.0 2.0 4 157
r 1.56584 1 2 cbr 210 ------- 2 1.0 2.1 148 153
+ 1.56625 1 2 cbr 210 ------- 2 1.0 2.1 151 158
- 1.56625 1 2 cbr 210 ------- 2 1.0 2.1 151 158
r 1.56959 1 2 cbr 210 ------- 2 1.0 2.1 149 154
+ 1.57 1 2 cbr 210 ------- 2 1.0 2.1 152 159
- 1.57 1 2 cbr 210 ------- 2 1.0 2.1 152 159
r 1.5732 0 2 tcp 1040 ------- 1 0.0 2.0 2 143
+ 1.5732 2 0 ack 40 ------- 1 2.0 0.0 2 160
- 1.5732 2 0 ack 40 ------- 1 2.0 0.0 2 160
r 1.57334 1 2 cbr 210 ------- 2 1.0 2.1 150 155
+ 1.57375 1 2 cbr 210 ------- 2 1.0 2.1 153 161
- 1.57375 1 2 cbr 210 ------- 2 1.0 2.1 153 161
r 1.57709 1 2 cbr 210 ------- 2 1.0 2.1 151 158
+ 1.5775 1 2 cbr 210 ------- 2 1.0 2.1 154 162
- 1.5775 1 2 cbr 210 ------- 2 1.0 2.1 154 162
r 1.58084 1 2 cbr 210 ------- 2 1.0 2.1 152 159
+ 1.58125 1 2 cbr 210 ------- 2 1.0 2.1 155 163
- 1.58125 1 2 cbr 210 ------- 2 1.0 2.1 155 163
- 1.584 0 2 tcp 1040 ------- 1 0.0 2.0 4 157
r 1.584 2 0 ack 40 ------- 1 2.0 0.0 2 160
+ 1.584 0 2 tcp 1040 ------- 1 0.0 2.0 5 164
+ 1.584 0 2 tcp 1040 ------- 1 0.0 2.0 6 165
r 1.58459 1 2 cbr 210 ------- 2 1.0 2.1 153 161
+ 1.585 1 2 cbr 210 ------- 2 1.0 2.1 156 166
- 1.585 1 2 cbr 210 ------- 2 1.0 2.1 156 166
r 1.58834 1 2 cbr 210 ------- 2 1.0 2.1 154 162
+ 1.58875 1 2 cbr 210 ------- 2 1.0 2.1 157 167
- 1.58875 1 2 cbr 210 ------- 2 1.0 2.1 157 167
r 1.59209 1 2 cbr 210 ------- 2 1.0 2.1 155 163
+ 1.5925 1 2 cbr 210 ------- 2 1.0 2.1 158 168
- 1.5925 1 2 cbr 210 ------- 2 1.0 2.1 158 168
r 1.594 0 2 tcp 1040 ------- 1 0.0 2.0 3 156
+ 1.594 2 0 ack 40 ------- 1 2.0 0.0 3 169
- 1.594 2 0 ack 40 ------- 1 2.0 0.0 3 169
r 1.59584 1 2 cbr 210 ------- 2 1.0 2.1 156 166
+ 1.59625 1 2 cbr 210 ------- 2 1.0 2.1 159 170
- 1.59625 1 2 cbr 210 ------- 2 1.0 2.1 159 170
r 1.59959 1 2 cbr 210 ------- 2 1.0 2.1 157 167
+ 1.6 1 2 cbr 210 ------- 2 1.0 2.1 160 171
- 1.6 1 2 cbr 210 ------- 2 1.0 2.1 160 171
r 1.60334 1 2 cbr 210 ------- 2 1.0 2.1 158 168
+ 1.60375 1 2 cbr 210 ------- 2 1.0 2.1 161 172
- 1.60375 1 2 cbr 210 ------- 2 1.0 2.1 161 172
- 1.6048 0 2 tcp 1040 ------- 1 0.0 2.0 5 164
r 1.6048 2 0 ack 40 ------- 1 2.0 0.0 3 169
+ 1.6048 0 2 tcp 1040 ------- 1 0.0 2.0 7 173
+ 1.6048 0 2 tcp 1040 ------- 1 0.0 2.0 8 174
r 1.60709 1 2 cbr 210 ------- 2 1.0 2.1 159 170
+ 1.6075 1 2 cbr 210 ------- 2 1.0 2.1 162 175
- 1.6075 1 2 cbr 210 ------- 2 1.0 2.1 162 175
r 1.61084 1 2 cbr 210 ------- 2 1.0 2.1 160 171
+ 1.61125 1 2 cbr 210 ------- 2 1.0 2.1 163 176
- 1.61125 1 2 cbr 210 ------- 2 1.0 2.1 163 176
r 1.61459 1 2 cbr 210 ------- 2 1.0 2.1 161 172
r 1.6148 0 2 tcp 1040 ------- 1 0.0 2.0 4 157
+ 1.6148 2 0 ack 40 ------- 1 2.0 0.0 4 177
- 1.6148 2 0 ack 40 ------- 1 2.0 0.0 4 177
+ 1.615 1 2 cbr 210 ------- 2 1.0 2.1 164 178
- 1.615 1 2 cbr 210 ------- 2 1.0 2.1 164 178
r 1.61834 1 2 cbr 210 ------- 2 1.0 2.1 162 175
+ 1.61875 1 2 cbr 210 ------- 2 1.0 2.1 165 179
- 1.61875 1 2 cbr 210 ------- 2 1.0 2.1 165 179
r 1.62209 1 2 cbr 210 ------- 2 1.0 2.1 163 176
+ 1.6225 1 2 cbr 210 ------- 2 1.0 2.1 166 180
- 1.6225 1 2 cbr 210 ------- 2 1.0 2.1 166 180
- 1.6256 0 2 tcp 1040 ------- 1 0.0 2.0 6 165
r 1.6256 2 0 ack 40 ------- 1 2.0 0.0 4 177
+ 1.6256 0 2 tcp 1040 ------- 1 0.0 2.0 9 181
+ 1.6256 0 2 tcp 1040 ------- 1 0.0 2.0 10 182
r 1.62584 1 2 cbr 210 ------- 2 1.0 2.1 164 178
+ 1.62625 1 2 cbr 210 ------- 2 1.0 2.1 167 183
- 1.62625 1 2 cbr 210 ------- 2 1.0 2.1 167 183
r 1.62959 1 2 cbr 210 ------- 2 1.0 2.1 165 179
+ 1.63 1 2 cbr 210 ------- 2 1.0 2.1 168 184
- 1.63 1 2 cbr 210 ------- 2 1.0 2.1 168 184
r 1.63334 1 2 cbr 210 ------- 2 1.0 2.1 166 180
+ 1.63375 1 2 cbr 210 ------- 2 1.0 2.1 169 185
- 1.63375 1 2 cbr 210 ------- 2 1.0 2.1 169 185
r 1.6356 0 2 tcp 1040 ------- 1 0.0 2.0 5 164
+ 1.6356 2 0 ack 40 ------- 1 2.0 0.0 5 186
- 1.6356 2 0 ack 40 ------- 1 2.0 0.0 5 186
r 1.63709 1 2 cbr 210 ------- 2 1.0 2.1 167 183
+ 1.6375 1 2 cbr 210 ------- 2 1.0 2.1 170 187
- 1.6375 1 2 cbr 210 ------- 2 1.0 2.1 170 187
r 1.64084 1 2 cbr 210 ------- 2 1.0 2.1 168 184
+ 1.64125 1 2 cbr 210 ------- 2 1.0 2.1 171 188
- 1.64125 1 2 cbr 210 ------- 2 1.0 2.1 171 188
r 1.64459 1 2 cbr 210 ------- 2 1.0 2.1 169 185
+ 1.645 1 2 cbr 210 ------- 2 1.0 2.1 172 189
- 1.645 1 2 cbr 210 ------- 2 1.0 2.1 172 189
- 1.6464 0 2 tcp 1040 ------- 1 0.0 2.0 7 173
r 1.6464 2 0 ack 40 ------- 1 2.0 0.0 5 186
+ 1.6464 0 2 tcp 1040 ------- 1 0.0 2.0 11 190
+ 1.6464 0 2 tcp 1040 ------- 1 0.0 2.0 12 191
r 1.64834 1 2 cbr 210 ------- 2 1.0 2.1 170 187
+ 1.64875 1 2 cbr 210 ------- 2 1.0 2.1 173 192
- 1.64875 1 2 cbr 210 ------- 2 1.0 2.1 173 192
r 1.65209 1 2 cbr 210 ------- 2 1.0 2.1 171 188
+ 1.6525 1 2 cbr 210 ------- 2 1.0 2.1 174 193
- 1.6525 1 2 cbr 210 ------- 2 1.0 2.1 174 193
r 1.65584 1 2 cbr 210 ------- 2 1.0 2.1 172 189
+ 1.65625 1 2 cbr 210 ------- 2 1.0 2.1 175 194
- 1.65625 1 2 cbr 210 ------- 2 1.0 2.1 175 194
r 1.6564 0 2 tcp 1040 ------- 1 0.0 2.0 6 165
+ 1.6564 2 0 ack 40 ------- 1 2.0 0.0 6 195
- 1.6564 2 0 ack 40 ------- 1 2.0 0.0 6 195
r 1.65959 1 2 cbr 210 ------- 2 1.0 2.1 173 192
+ 1.66 1 2 cbr 210 ------- 2 1.0 2.1 176 196
- 1.66 1 2 cbr 210 ------- 2 1.0 2.1 176 196
r 1.66334 1 2 cbr 210 ------- 2 1.0 2.1 174 193
+ 1.66375 1 2 cbr 210 ------- 2 1.0 2.1 177 197
- 1.66375 1 2 cbr 210 ------- 2 1.0 2.1 177 197
r 1.66709 1 2 cbr 210 ------- 2 1.0 2.1 175 194
- 1.6672 0 2 tcp 1040 ------- 1 0.0 2.0 8 174
r 1.6672 2 0 ack 40 ------- 1 2.0 0.0 6 195
+ 1.6672 0 2 tcp 1040 ------- 1 0.0 2.0 13 198
+ 1.6672 0 2 tcp 1040 ------- 1 0.0 2.0 14 199
+ 1.6675 1 2 cbr 210 ------- 2 1.0 2.1 178 200
- 1.6675 1 2 cbr 210 ------- 2 1.0 2.1 178 200
r 1.67084 1 2 cbr 210 ------- 2 1.0 2.1 176 196
+ 1.67125 1 2 cbr 210 ------- 2 1.0 2.1 179 201
- 1.67125 1 2 cbr 210 ------- 2 1.0 2.1 179 201
r 1.67459 1 2 cbr 210 ------- 2 1.0 2.1 177 197
+ 1.675 1 2 cbr 210 ------- 2 1.0 2.1 180 202
- 1.675 1 2 cbr 210 ------- 2 1.0 2.1 180 202
r 1.6772 0 2 tcp 1040 ------- 1 0.0 2.0 7 173
+ 1.6772 2 0 ack 40 ------- 1 2.0 0.0 7 203
- 1.6772 2 0 ack 40 ------- 1 2.0 0.0 7 203
r 1.67834 1 2 cbr 210 ------- 2 1.0 2.1 178 200
+ 1.67875 1 2 cbr 210 ------- 2 1.0 2.1 181 204
- 1.67875 1 2 cbr 210 ------- 2 1.0 2.1 181 204
r 1.68209 1 2 cbr 210 ------- 2 1.0 2.1 179 201
+ 1.6825 1 2 cbr 210 ------- 2 1.0 2.1 182 205
- 1.6825 1 2 cbr 210 ------- 2 1.0 2.1 182 205
r 1.68584 1 2 cbr 210 ------- 2 1.0 2.1 180 202
+ 1.68625 1 2 cbr 210 ------- 2 1.0 2.1 183 206
- 1.68625 1 2 cbr 210 ------- 2 1.0 2.1 183 206
- 1.688 0 2 tcp 1040 ------- 1 0.0 2.0 9 181
r 1.688 2 0 ack 40 ------- 1 2.0 0.0 7 203
+ 1.688 0 2 tcp 1040 ------- 1 0.0 2.0 15 207
+ 1.688 0 2 tcp 1040 ------- 1 0.0 2.0 16 208
r 1.68959 1 2 cbr 210 ------- 2 1.0 2.1 181 204
+ 1.69 1 2 cbr 210 ------- 2 1.0 2.1 184 209
- 1.69 1 2 cbr 210 ------- 2 1.0 2.1 184 209
r 1.69334 1 2 cbr 210 ------- 2 1.0 2.1 182 205
+ 1.69375 1 2 cbr 210 ------- 2 1.0 2.1 185 210
- 1.69375 1 2 cbr 210 ------- 2 1.0 2.1 185 210
r 1.69709 1 2 cbr 210 ------- 2 1.0 2.1 183 206
+ 1.6975 1 2 cbr 210 ------- 2 1.0 2.1 186 211
- 1.6975 1 2 cbr 210 ------- 2 1.0 2.1 186 211
r 1.698 0 2 tcp 1040 ------- 1 0.0 2.0 8 174
+ 1.698 2 0 ack 40 ------- 1 2.0 0.0 8 212
- 1.698 2 0 ack 40 ------- 1 2.0 0.0 8 212
r 1.70084 1 2 cbr 210 ------- 2 1.0 2.1 184 209
+ 1.70125 1 2 cbr 210 ------- 2 1.0 2.1 187 213
- 1.70125 1 2 cbr 210 ------- 2 1.0 2.1 187 213
r 1.70459 1 2 cbr 210 ------- 2 1.0 2.1 185 210
+ 1.705 1 2 cbr 210 ------- 2 1.0 2.1 188 214
- 1.705 1 2 cbr 210 ------- 2 1.0 2.1 188 214
r 1.70834 1 2 cbr 210 ------- 2 1.0 2.1 186 211
+ 1.70875 1 2 cbr 210 ------- 2 1.0 2.1 189 215
- 1.70875 1 2 cbr 210 ------- 2 1.0 2.1 189 215
- 1.7088 0 2 tcp 1040 ------- 1 0.0 2.0 10 182
r 1.7088 2 0 ack 40 ------- 1 2.0 0.0 8 212
+ 1.7088 0 2 tcp 1040 ------- 1 0.0 2.0 17 216
+ 1.7088 0 2 tcp 1040 ------- 1 0.0 2.0 18 217
r 1.71209 1 2 cbr 210 ------- 2 1.0 2.1 187 213
+ 1.7125 1 2 cbr 210 ------- 2 1.0 2.1 190 218
- 1.7125 1 2 cbr 210 ------- 2 1.0 2.1 190 218
r 1.71584 1 2 cbr 210 ------- 2 1.0 2.1 188 214
+ 1.71625 1 2 cbr 210 ------- 2 1.0 2.1 191 219
- 1.71625 1 2 cbr 210 ------- 2 1.0 2.1 191 219
r 1.7188 0 2 tcp 1040 ------- 1 0.0 2.0 9 181
+ 1.7188 2 0 ack 40 ------- 1 2.0 0.0 9 220
- 1.7188 2 0 ack 40 ------- 1 2.0 0.0 9 220
r 1.71959 1 2 cbr 210 ------- 2 1.0 2.1 189 215
+ 1.72 1 2 cbr 210 ------- 2 1.0 2.1 192 221
- 1.72 1 2 cbr 210 ------- 2 1.0 2.1 192 221
r 1.72334 1 2 cbr 210 ------- 2 1.0 2.1 190 218
+ 1.72375 1 2 cbr 210 ------- 2 1.0 2.1 193 222
- 1.72375 1 2 cbr 210 ------- 2 1.0 2.1 193 222
r 1.72709 1 2 cbr 210 ------- 2 1.0 2.1 191 219
+ 1.7275 1 2 cbr 210 ------- 2 1.0 2.1 194 223