s 5.000000000 _1_ AGT  --- 0 tcp 40 [0 0 0 0] ------- [1:0 4:0 32 0] [0 0] 0 0
r 5.000000000 _1_ RTR  --- 0 tcp 40 [0 0 0 0] ------- [1:0 4:0 32 0] [0 0] 0 0
M 5.00000 0 (49.61, 479.72, 0.00), (121.19, 538.28), 20.00
M 5.00000 1 (95.31, 688.22, 0.00), (393.47, 246.62), 20.00
M 5.00000 2 (480.12, 70.82, 0.00), (442.46, 95.52), 20.00
M 5.00000 3 (706.66, 663.19, 0.00), (380.95, 690.44), 20.00
M 5.00000 4 (401.87, 488.50, 0.00), (162.59, 375.22), 20.00
M 5.00000 5 (26.67, 413.56, 0.00), (344.10, 29.91), 20.00
M 5.00000 6 (495.72, 500.94, 0.00), (124.16, 308.67), 20.00
M 5.00000 7 (488.39, 441.61, 0.00), (90.58, 651.67), 20.00
M 5.00000 8 (116.84, 210.22, 0.00), (404.55, 527.18), 20.00
M 5.00000 9 (595.85, 521.47, 0.00), (541.26, 240.68), 20.00
s 5.000000000 _1_ RTR  --- 0 AODV 48 [0 0 0 0] ------- [1:255 -1:255 30 0] [0x2 1 1 [4 0] [1 4]] (REQUEST)
r 5.000988712 _0_ RTR  --- 0 AODV 48 [0 ffffffff 1 800] ------- [1:255 -1:255 30 0] [0x2 1 1 [4 0] [1 4]] (REQUEST)
s 5.001869938 _0_ RTR  --- 0 AODV 48 [0 ffffffff 1 800] ------- [0:255 -1:255 29 0] [0x2 2 1 [4 0] [1 4]] (REQUEST)
r 5.003138172 _5_ RTR  --- 0 AODV 48 [0 ffffffff 0 800] ------- [0:255 -1:255 29 0] [0x2 2 1 [4 0] [1 4]] (REQUEST)
r 5.003138650 _1_ RTR  --- 0 AODV 48 [0 ffffffff 0 800] ------- [0:255 -1:255 29 0] [0x2 2 1 [4 0] [1 4]] (REQUEST)
s 5.006267790 _5_ RTR  --- 0 AODV 48 [0 ffffffff 0 800] ------- [5:255 -1:255 28 0] [0x2 3 1 [4 0] [1 4]] (REQUEST)
r 5.007416024 _0_ RTR  --- 0 AODV 48 [0 ffffffff 5 800] ------- [5:255 -1:255 28 0] [0x2 3 1 [4 0] [1 4]] (REQUEST)
r 5.007416530 _8_ RTR  --- 0 AODV 48 [0 ffffffff 5 800] ------- [5:255 -1:255 28 0] [0x2 3 1 [4 0] [1 4]] (REQUEST)
s 5.013805182 _8_ RTR  --- 0 AODV 48 [0 ffffffff 5 800] ------- [8:255 -1:255 27 0] [0x2 4 1 [4 0] [1 4]] (REQUEST)
r 5.015013922 _5_ RTR  --- 0 AODV 48 [0 ffffffff 8 800] ------- [8:255 -1:255 27 0] [0x2 4 1 [4 0] [1 4]] (REQUEST)
s 7.000000000 _1_ RTR  --- 0 AODV 48 [0 0 0 0] ------- [1:255 -1:255 30 0] [0x2 1 2 [4 0] [1 6]] (REQUEST)
r 7.000988515 _0_ RTR  --- 0 AODV 48 [0 ffffffff 1 800] ------- [1:255 -1:255 30 0] [0x2 1 2 [4 0] [1 6]] (REQUEST)
s 7.007389192 _0_ RTR  --- 0 AODV 48 [0 ffffffff 1 800] ------- [0:255 -1:255 29 0] [0x2 2 2 [4 0] [1 6]] (REQUEST)
r 7.008697611 _5_ RTR  --- 0 AODV 48 [0 ffffffff 0 800] ------- [0:255 -1:255 29 0] [0x2 2 2 [4 0] [1 6]] (REQUEST)
r 7.008697706 _1_ RTR  --- 0 AODV 48 [0 ffffffff 0 800] ------- [0:255 -1:255 29 0] [0x2 2 2 [4 0] [1 6]] (REQUEST)
s 7.012934178 _5_ RTR  --- 0 AODV 48 [0 ffffffff 0 800] ------- [5:255 -1:255 28 0] [0x2 3 2 [4 0] [1 6]] (REQUEST)
r 7.014362598 _0_ RTR  --- 0 AODV 48 [0 ffffffff 5 800] ------- [5:255 -1:255 28 0] [0x2 3 2 [4 0] [1 6]] (REQUEST)
r 7.014362743 _8_ RTR  --- 0 AODV 48 [0 ffffffff 5 800] ------- [5:255 -1:255 28 0] [0x2 3 2 [4 0] [1 6]] (REQUEST)
s 7.022433029 _8_ RTR  --- 0 AODV 48 [0 ffffffff 5 800] ------- [8:255 -1:255 27 0] [0x2 4 2 [4 0] [1 6]] (REQUEST)
r 7.023581592 _5_ RTR  --- 0 AODV 48 [0 ffffffff 8 800] ------- [8:255 -1:255 27 0] [0x2 4 2 [4 0] [1 6]] (REQUEST)
s 8.000000000 _1_ AGT  --- 1 tcp 40 [0 0 0 0] ------- [1:0 4:0 32 0] [0 0] 0 0
r 8.000000000 _1_ RTR  --- 1 tcp 40 [0 0 0 0] ------- [1:0 4:0 32 0] [0 0] 0 0
M 10.00000 0 (121.19, 538.28, 0.00), (368.66, 369.35), 20.00
M 10.00000 1 (151.27, 605.35, 0.00), (667.31, 705.82), 20.00
M 10.00000 2 (442.46, 95.52, 0.00), (654.12, 252.79), 20.00
M 10.00000 3 (607.01, 671.52, 0.00), (567.36, 61.75), 20.00
M 10.00000 4 (311.49, 445.71, 0.00), (548.58, 256.47), 20.00
M 10.00000 5 (90.41, 336.52, 0.00), (179.73, 540.53), 20.00
M 10.00000 6 (406.90, 454.98, 0.00), (738.28, 344.04), 20.00
M 10.00000 7 (399.97, 488.30, 0.00), (458.31, 272.90), 20.00
M 10.00000 8 (184.05, 284.26, 0.00), (444.55, 26.54), 20.00
M 10.00000 9 (576.77, 423.31, 0.00), (612.37, 684.32), 20.00
s 11.000000000 _1_ RTR  --- 0 AODV 48 [0 0 0 0] ------- [1:255 -1:255 30 0] [0x2 1 3 [4 0] [1 8]] (REQUEST)
r 11.000968295 _0_ RTR  --- 0 AODV 48 [0 ffffffff 1 800] ------- [1:255 -1:255 30 0] [0x2 1 3 [4 0] [1 8]] (REQUEST)
r 11.000968784 _4_ RTR  --- 0 AODV 48 [0 ffffffff 1 800] ------- [1:255 -1:255 30 0] [0x2 1 3 [4 0] [1 8]] (REQUEST)
s 11.000968784 _4_ RTR  --- 0 AODV 44 [0 0 0 0] ------- [4:255 1:255 30 1] [0x4 1 [4 4] 10.000000] (REPLY)
s 11.005629455 _0_ RTR  --- 0 AODV 48 [0 ffffffff 1 800] ------- [0:255 -1:255 29 0] [0x2 2 3 [4 0] [1 8]] (REQUEST)
r 11.005772275 _1_ RTR  --- 0 AODV 44 [13a 1 4 800] ------- [4:255 1:255 30 1] [0x4 1 [4 4] 10.000000] (REPLY)
s 11.005772275 _1_ RTR  --- 0 tcp 60 [0 0 0 0] ------- [1:0 4:0 30 4] [0 0] 0 0
r 11.008118628 _4_ AGT  --- 0 tcp 60 [13a 4 1 800] ------- [1:0 4:0 30 4] [0 0] 1 0
s 11.008118628 _4_ AGT  --- 2 ack 40 [0 0 0 0] ------- [4:0 1:0 32 0] [0 0] 0 0
r 11.008118628 _4_ RTR  --- 2 ack 40 [0 0 0 0] ------- [4:0 1:0 32 0] [0 0] 0 0
s 11.008118628 _4_ RTR  --- 2 ack 60 [0 0 0 0] ------- [4:0 1:0 30 1] [0 0] 0 0
r 11.009511628 _1_ RTR  --- 0 AODV 48 [0 ffffffff 0 800] ------- [0:255 -1:255 29 0] [0x2 2 3 [4 0] [1 8]] (REQUEST)
r 11.009511921 _5_ RTR  --- 0 AODV 48 [0 ffffffff 0 800] ------- [0:255 -1:255 29 0] [0x2 2 3 [4 0] [1 8]] (REQUEST)
r 11.009512037 _4_ RTR  --- 0 AODV 48 [0 ffffffff 0 800] ------- [0:255 -1:255 29 0] [0x2 2 3 [4 0] [1 8]] (REQUEST)
r 11.011304391 _1_ AGT  --- 2 ack 60 [13a 1 4 800] ------- [4:0 1:0 30 1] [0 0] 1 0
s 11.011304391 _1_ AGT  --- 3 tcp 1040 [0 0 0 0] ------- [1:0 4:0 32 0] [1 0] 0 0
r 11.011304391 _1_ RTR  --- 3 tcp 1040 [0 0 0 0] ------- [1:0 4:0 32 0] [1 0] 0 0
s 11.011304391 _1_ RTR  --- 3 tcp 1060 [0 0 0 0] ------- [1:0 4:0 30 4] [1 0] 0 0
s 11.013567111 _5_ RTR  --- 0 AODV 48 [0 ffffffff 0 800] ------- [5:255 -1:255 28 0] [0x2 3 3 [4 0] [1 8]] (REQUEST)
s 11.015772275 _1_ RTR  --- 1 tcp 60 [0 0 0 0] ------- [1:0 4:0 30 4] [0 0] 0 0
r 11.021350745 _4_ AGT  --- 3 tcp 1060 [13a 4 1 800] ------- [1:0 4:0 30 4] [1 0] 1 0
s 11.021350745 _4_ AGT  --- 4 ack 40 [0 0 0 0] ------- [4:0 1:0 32 0] [1 0] 0 0
r 11.021350745 _4_ RTR  --- 4 ack 40 [0 0 0 0] ------- [4:0 1:0 32 0] [1 0] 0 0
s 11.021350745 _4_ RTR  --- 4 ack 60 [0 0 0 0] ------- [4:0 1:0 30 1] [1 0] 0 0
r 11.023437885 _4_ AGT  --- 1 tcp 60 [13a 4 1 800] ------- [1:0 4:0 30 4] [0 0] 1 0
s 11.023437885 _4_ AGT  --- 5 ack 40 [0 0 0 0] ------- [4:0 1:0 32 0] [1 0] 0 0
r 11.023437885 _4_ RTR  --- 5 ack 40 [0 0 0 0] ------- [4:0 1:0 32 0] [1 0] 0 0
s 11.023437885 _4_ RTR  --- 5 ack 60 [0 0 0 0] ------- [4:0 1:0 30 1] [1 0] 0 0
r 11.025544240 _1_ AGT  --- 4 ack 60 [13a 1 4 800] ------- [4:0 1:0 30 1] [1 0] 1 0
s 11.025544240 _1_ AGT  --- 6 tcp 1040 [0 0 0 0] ------- [1:0 4:0 32 0] [2 0] 0 0
r 11.025544240 _1_ RTR  --- 6 tcp 1040 [0 0 0 0] ------- [1:0 4:0 32 0] [2 0] 0 0
s 11.025544240 _1_ AGT  --- 7 tcp 1040 [0 0 0 0] ------- [1:0 4:0 32 0] [3 0] 0 0
r 11.025544240 _1_ RTR  --- 7 tcp 1040 [0 0 0 0] ------- [1:0 4:0 32 0] [3 0] 0 0
s 11.025544240 _1_ RTR  --- 6 tcp 1060 [0 0 0 0] ------- [1:0 4:0 30 4] [2 0] 0 0
s 11.025544240 _1_ RTR  --- 7 tcp 1060 [0 0 0 0] ------- [1:0 4:0 30 4] [3 0] 0 0
r 11.027751380 _1_ AGT  --- 5 ack 60 [13a 1 4 800] ------- [4:0 1:0 30 1] [1 0] 1 0
s 11.027751380 _1_ AGT  --- 8 tcp 1040 [0 0 0 0] ------- [1:0 4:0 32 0] [4 0] 0 0
r 11.027751380 _1_ RTR  --- 8 tcp 1040 [0 0 0 0] ------- [1:0 4:0 32 0] [4 0] 0 0
s 11.027751380 _1_ RTR  --- 8 tcp 1060 [0 0 0 0] ------- [1:0 4:0 30 4] [4 0] 0 0
r 11.037917736 _4_ AGT  --- 6 tcp 1060 [13a 4 1 800] ------- [1:0 4:0 30 4] [2 0] 1 0
s 11.037917736 _4_ AGT  --- 9 ack 40 [0 0 0 0] ------- [4:0 1:0 32 0] [2 0] 0 0
r 11.037917736 _4_ RTR  --- 9 ack 40 [0 0 0 0] ------- [4:0 1:0 32 0] [2 0] 0 0
s 11.037917736 _4_ RTR  --- 9 ack 60 [0 0 0 0] ------- [4:0 1:0 30 1] [2 0] 0 0
r 11.039924092 _1_ AGT  --- 9 ack 60 [13a 1 4 800] ------- [4:0 1:0 30 1] [2 0] 1 0
r 11.041601412 _8_ RTR  --- 0 AODV 48 [0 ffffffff 5 800] ------- [5:255 -1:255 28 0] [0x2 3 3 [4 0] [1 8]] (REQUEST)
r 11.041601557 _0_ RTR  --- 0 AODV 48 [0 ffffffff 5 800] ------- [5:255 -1:255 28 0] [0x2 3 3 [4 0] [1 8]] (REQUEST)
r 11.041601778 _4_ RTR  --- 0 AODV 48 [0 ffffffff 5 800] ------- [5:255 -1:255 28 0] [0x2 3 3 [4 0] [1 8]] (REQUEST)
s 11.047551686 _8_ RTR  --- 0 AODV 48 [0 ffffffff 5 800] ------- [8:255 -1:255 27 0] [0x2 4 3 [4 0] [1 8]] (REQUEST)
r 11.051738209 _4_ AGT  --- 7 tcp 1060 [13a 4 1 800] ------- [1:0 4:0 30 4] [3 0] 1 0
s 11.051738209 _4_ AGT  --- 10 ack 40 [0 0 0 0] ------- [4:0 1:0 32 0] [3 0] 0 0
r 11.051738209 _4_ RTR  --- 10 ack 40 [0 0 0 0] ------- [4:0 1:0 32 0] [3 0] 0 0
s 11.051738209 _4_ RTR  --- 10 ack 60 [0 0 0 0] ------- [4:0 1:0 30 1] [3 0] 0 0
r 11.061905353 _4_ AGT  --- 8 tcp 1060 [13a 4 1 800] ------- [1:0 4:0 30 4] [4 0] 1 0
s 11.061905353 _4_ AGT  --- 11 ack 40 [0 0 0 0] ------- [4:0 1:0 32 0] [4 0] 0 0
r 11.061905353 _4_ RTR  --- 11 ack 40 [0 0 0 0] ------- [4:0 1:0 32 0] [4 0] 0 0
s 11.061905353 _4_ RTR  --- 11 ack 60 [0 0 0 0] ------- [4:0 1:0 30 1] [4 0] 0 0
r 11.063991711 _1_ AGT  --- 10 ack 60 [13a 1 4 800] ------- [4:0 1:0 30 1] [3 0] 1 0
s 11.063991711 _1_ AGT  --- 12 tcp 1040 [0 0 0 0] ------- [1:0 4:0 32 0] [5 0] 0 0
r 11.063991711 _1_ RTR  --- 12 tcp 1040 [0 0 0 0] ------- [1:0 4:0 32 0] [5 0] 0 0
s 11.063991711 _1_ RTR  --- 12 tcp 1060 [0 0 0 0] ------- [1:0 4:0 30 4] [5 0] 0 0
r 11.074158070 _4_ AGT  --- 12 tcp 1060 [13a 4 1 800] ------- [1:0 4:0 30 4] [5 0] 1 0
s 11.074158070 _4_ AGT  --- 13 ack 40 [0 0 0 0] ------- [4:0 1:0 32 0] [5 0] 0 0
r 11.074158070 _4_ RTR  --- 13 ack 40 [0 0 0 0] ------- [4:0 1:0 32 0] [5 0] 0 0
s 11.074158070 _4_ RTR  --- 13 ack 60 [0 0 0 0] ------- [4:0 1:0 30 1] [5 0] 0 0
r 11.076444430 _1_ AGT  --- 11 ack 60 [13a 1 4 800] ------- [4:0 1:0 30 1] [4 0] 1 0
s 11.076444430 _1_ AGT  --- 14 tcp 1040 [0 0 0 0] ------- [1:0 4:0 32 0] [6 0] 0 0
r 11.076444430 _1_ RTR  --- 14 tcp 1040 [0 0 0 0] ------- [1:0 4:0 32 0] [6 0] 0 0
s 11.076444430 _1_ AGT  --- 15 tcp 1040 [0 0 0 0] ------- [1:0 4:0 32 0] [7 0] 0 0
r 11.076444430 _1_ RTR  --- 15 tcp 1040 [0 0 0 0] ------- [1:0 4:0 32 0] [7 0] 0 0
s 11.076444430 _1_ RTR  --- 14 tcp 1060 [0 0 0 0] ------- [1:0 4:0 30 4] [6 0] 0 0
s 11.076444430 _1_ RTR  --- 15 tcp 1060 [0 0 0 0] ------- [1:0 4:0 30 4] [7 0] 0 0
r 11.086650791 _4_ AGT  --- 14 tcp 1060 [13a 4 1 800] ------- [1:0 4:0 30 4] [6 0] 1 0
s 11.086650791 _4_ AGT  --- 16 ack 40 [0 0 0 0] ------- [4:0 1:0 32 0] [6 0] 0 0
r 11.086650791 _4_ RTR  --- 16 ack 40 [0 0 0 0] ------- [4:0 1:0 32 0] [6 0] 0 0
s 11.086650791 _4_ RTR  --- 16 ack 60 [0 0 0 0] ------- [4:0 1:0 30 1] [6 0] 0 0
r 11.088737152 _1_ AGT  --- 13 ack 60 [13a 1 4 800] ------- [4:0 1:0 30 1] [5 0] 1 0
s 11.088737152 _1_ AGT  --- 17 tcp 1040 [0 0 0 0] ------- [1:0 4:0 32 0] [8 0] 0 0
r 11.088737152 _1_ RTR  --- 17 tcp 1040 [0 0 0 0] ------- [1:0 4:0 32 0] [8 0] 0 0
s 11.088737152 _1_ RTR  --- 17 tcp 1060 [0 0 0 0] ------- [1:0 4:0 30 4] [8 0] 0 0
r 11.098783513 _4_ AGT  --- 15 tcp 1060 [13a 4 1 800] ------- [1:0 4:0 30 4] [7 0] 1 0
s 11.098783513 _4_ AGT  --- 18 ack 40 [0 0 0 0] ------- [4:0 1:0 32 0] [7 0] 0 0
r 11.098783513 _4_ RTR  --- 18 ack 40 [0 0 0 0] ------- [4:0 1:0 32 0] [7 0] 0 0
s 11.098783513 _4_ RTR  --- 18 ack 60 [0 0 0 0] ------- [4:0 1:0 30 1] [7 0] 0 0
r 11.108850663 _4_ AGT  --- 17 tcp 1060 [13a 4 1 800] ------- [1:0 4:0 30 4] [8 0] 1 0
s 11.108850663 _4_ AGT  --- 19 ack 40 [0 0 0 0] ------- [4:0 1:0 32 0] [8 0] 0 0
r 11.108850663 _4_ RTR  --- 19 ack 40 [0 0 0 0] ------- [4:0 1:0 32 0] [8 0] 0 0
s 11.108850663 _4_ RTR  --- 19 ack 60 [0 0 0 0] ------- [4:0 1:0 30 1] [8 0] 0 0
r 11.110917026 _1_ AGT  --- 16 ack 60 [13a 1 4 800] ------- [4:0 1:0 30 1] [6 0] 1 0
s 11.110917026 _1_ AGT  --- 20 tcp 1040 [0 0 0 0] ------- [1:0 4:0 32 0] [9 0] 0 0
r 11.110917026 _1_ RTR  --- 20 tcp 1040 [0 0 0 0] ------- [1:0 4:0 32 0] [9 0] 0 0
s 11.110917026 _1_ RTR  --- 20 tcp 1060 [0 0 0 0] ------- [1:0 4:0 30 4] [9 0] 0 0
r 11.112904177 _1_ AGT  --- 18 ack 60 [13a 1 4 800] ------- [4:0 1:0 30 1] [7 0] 1 0
s 11.112904177 _1_ AGT  --- 21 tcp 1040 [0 0 0 0] ------- [1:0 4:0 32 0] [10 0] 0 0
r 11.112904177 _1_ RTR  --- 21 tcp 1040 [0 0 0 0] ------- [1:0 4:0 32 0] [10 0] 0 0
s 11.112904177 _1_ AGT  --- 22 tcp 1040 [0 0 0 0] ------- [1:0 4:0 32 0] [11 0] 0 0
r 11.112904177 _1_ RTR  --- 22 tcp 1040 [0 0 0 0] ------- [1:0 4:0 32 0] [11 0] 0 0
s 11.112904177 _1_ RTR  --- 21 tcp 1060 [0 0 0 0] ------- [1:0 4:0 30 4] [10 0] 0 0
s 11.112904177 _1_ RTR  --- 22 tcp 1060 [0 0 0 0] ------- [1:0 4:0 30 4] [11 0] 0 0
r 11.123110541 _4_ AGT  --- 20 tcp 1060 [13a 4 1 800] ------- [1:0 4:0 30 4] [9 0] 1 0
s 11.123110541 _4_ AGT  --- 23 ack 40 [0 0 0 0] ------- [4:0 1:0 32 0] [9 0] 0 0
r 11.123110541 _4_ RTR  --- 23 ack 40 [0 0 0 0] ------- [4:0 1:0 32 0] [9 0] 0 0
s 11.123110541 _4_ RTR  --- 23 ack 60 [0 0 0 0] ------- [4:0 1:0 30 1] [9 0] 0 0
r 11.125116906 _1_ AGT  --- 19 ack 60 [13a 1 4 800] ------- [4:0 1:0 30 1] [8 0] 1 0
s 11.125116906 _1_ AGT  --- 24 tcp 1040 [0 0 0 0] ------- [1:0 4:0 32 0] [12 0] 0 0
r 11.125116906 _1_ RTR  --- 24 tcp 1040 [0 0 0 0] ------- [1:0 4:0 32 0] [12 0] 0 0
s 11.125116906 _1_ RTR  --- 24 tcp 1060 [0 0 0 0] ------- [1:0 4:0 30 4] [12 0] 0 0
r 11.127396835 _5_ RTR  --- 0 AODV 48 [0 ffffffff 8 800] ------- [8:255 -1:255 27 0] [0x2 4 3 [4 0] [1 8]] (REQUEST)
r 11.127397081 _4_ RTR  --- 0 AODV 48 [0 ffffffff 8 800] ------- [8:255 -1:255 27 0] [0x2 4 3 [4 0] [1 8]] (REQUEST)
r 11.129849446 _1_ AGT  --- 23 ack 60 [13a 1 4 800] ------- [4:0 1:0 30 1] [9 0] 1 0
s 11.129849446 _1_ AGT  --- 25 tcp 1040 [0 0 0 0] ------- [1:0 4:0 32 0] [13 0] 0 0
r 11.129849446 _1_ RTR  --- 25 tcp 1040 [0 0 0 0] ------- [1:0 4:0 32 0] [13 0] 0 0
s 11.129849446 _1_ RTR  --- 25 tcp 1060 [0 0 0 0] ------- [1:0 4:0 30 4] [13 0] 0 0
r 11.140055811 _4_ AGT  --- 21 tcp 1060 [13a 4 1 800] ------- [1:0 4:0 30 4] [10 0] 1 0
s 11.140055811 _4_ AGT  --- 26 ack 40 [0 0 0 0] ------- [4:0 1:0 32 0] [10 0] 0 0
r 11.140055811 _4_ RTR  --- 26 ack 40 [0 0 0 0] ------- [4:0 1:0 32 0] [10 0] 0 0
s 11.140055811 _4_ RTR  --- 26 ack 60 [0 0 0 0] ------- [4:0 1:0 30 1] [10 0] 0 0
r 11.150082966 _4_ AGT  --- 22 tcp 1060 [13a 4 1 800] ------- [1:0 4:0 30 4] [11 0] 1 0
s 11.150082966 _4_ AGT  --- 27 ack 40 [0 0 0 0] ------- [4:0 1:0 32 0] [11 0] 0 0
r 11.150082966 _4_ RTR  --- 27 ack 40 [0 0 0 0] ------- [4:0 1:0 32 0] [11 0] 0 0
s 11.150082966 _4_ RTR  --- 27 ack 60 [0 0 0 0] ------- [4:0 1:0 30 1] [11 0] 0 0
r 11.152329334 _1_ AGT  --- 26 ack 60 [13a 1 4 800] ------- [4:0 1:0 30 1] [10 0] 1 0
s 11.152329334 _1_ AGT  --- 28 tcp 1040 [0 0 0 0] ------- [1:0 4:0 32 0] [14 0] 0 0
r 11.152329334 _1_ RTR  --- 28 tcp 1040 [0 0 0 0] ------- [1:0 4:0 32 0] [14 0] 0 0
s 11.152329334 _1_ RTR  --- 28 tcp 1060 [0 0 0 0] ------- [1:0 4:0 30 4] [14 0] 0 0
r 11.154436490 _1_ AGT  --- 27 ack 60 [13a 1 4 800] ------- [4:0 1:0 30 1] [11 0] 1 0
s 11.154436490 _1_ AGT  --- 29 tcp 1040 [0 0 0 0] ------- [1:0 4:0 32 0] [15 0] 0 0
r 11.154436490 _1_ RTR  --- 29 tcp 1040 [0 0 0 0] ------- [1:0 4:0 32 0] [15 0] 0 0
s 11.154436490 _1_ RTR  --- 29 tcp 1060 [0 0 0 0] ------- [1:0 4:0 30 4] [15 0] 0 0
r 11.164502858 _4_ AGT  --- 24 tcp 1060 [13a 4 1 800] ------- [1:0 4:0 30 4] [12 0] 1 0
s 11.164502858 _4_ AGT  --- 30 ack 40 [0 0 0 0] ------- [4:0 1:0 32 0] [12 0] 0 0
r 11.164502858 _4_ RTR  --- 30 ack 40 [0 0 0 0] ------- [4:0 1:0 32 0] [12 0] 0 0
s 11.164502858 _4_ RTR  --- 30 ack 60 [0 0 0 0] ------- [4:0 1:0 30 1] [12 0] 0 0
r 11.174590016 _4_ AGT  --- 25 tcp 1060 [13a 4 1 800] ------- [1:0 4:0 30 4] [13 0] 1 0
s 11.174590016 _4_ AGT  --- 31 ack 40 [0 0 0 0] ------- [4:0 1:0 32 0] [13 0] 0 0
r 11.174590016 _4_ RTR  --- 31 ack 40 [0 0 0 0] ------- [4:0 1:0 32 0] [13 0] 0 0
s 11.174590016 _4_ RTR  --- 31 ack 60 [0 0 0 0] ------- [4:0 1:0 30 1] [13 0] 0 0
r 11.176596386 _1_ AGT  --- 30 ack 60 [13a 1 4 800] ------- [4:0 1:0 30 1] [12 0] 1 0
s 11.176596386 _1_ AGT  --- 32 tcp 1040 [0 0 0 0] ------- [1:0 4:0 32 0] [16 0] 0 0
r 11.176596386 _1_ RTR  --- 32 tcp 1040 [0 0 0 0] ------- [1:0 4:0 32 0] [16 0] 0 0
s 11.176596386 _1_ AGT  --- 33 tcp 1040 [0 0 0 0] ------- [1:0 4:0 32 0] [17 0] 0 0
r 11.176596386 _1_ RTR  --- 33 tcp 1040 [0 0 0 0] ------- [1:0 4:0 32 0] [17 0] 0 0
s 11.176596386 _1_ RTR  --- 32 tcp 1060 [0 0 0 0] ------- [1:0 4:0 30 4] [16 0] 0 0
s 11.176596386 _1_ RTR  --- 33 tcp 1060 [0 0 0 0] ------- [1:0 4:0 30 4] [17 0] 0 0
r 11.186642755 _4_ AGT  --- 28 tcp 1060 [13a 4 1 800] ------- [1:0 4:0 30 4] [14 0] 1 0
s 11.186642755 _4_ AGT  --- 34 ack 40 [0 0 0 0] ------- [4:0 1:0 32 0] [14 0] 0 0
r 11.186642755 _4_ RTR  --- 34 ack 40 [0 0 0 0] ------- [4:0 1:0 32 0] [14 0] 0 0
s 11.186642755 _4_ RTR  --- 34 ack 60 [0 0 0 0] ------- [4:0 1:0 30 1] [14 0] 0 0
r 11.198175917 _4_ AGT  --- 29 tcp 1060 [13a 4 1 800] ------- [1:0 4:0 30 4] [15 0] 1 0
s 11.198175917 _4_ AGT  --- 35 ack 40 [0 0 0 0] ------- [4:0 1:0 32 0] [15 0] 0 0
r 11.198175917 _4_ RTR  --- 35 ack 40 [0 0 0 0] ------- [4:0 1:0 32 0] [15 0] 0 0
s 11.198175917 _4_ RTR  --- 35 ack 60 [0 0 0 0] ------- [4:0 1:0 30 1] [15 0] 0 0
r 11.200262289 _1_ AGT  --- 31 ack 60 [13a 1 4 800] ------- [4:0 1:0 30 1] [13 0] 1 0
s 11.200262289 _1_ AGT  --- 36 tcp 1040 [0 0 0 0] ------- [1:0 4:0 32 0] [18 0] 0 0
r 11.200262289 _1_ RTR  --- 36 tcp 1040 [0 0 0 0] ------- [1:0 4:0 32 0] [18 0] 0 0
s 11.200262289 _1_ RTR  --- 36 tcp 1060 [0 0 0 0] ------- [1:0 4:0 30 4] [18 0] 0 0
r 11.202369451 _1_ AGT  --- 34 ack 60 [13a 1 4 800] ------- [4:0 1:0 30 1] [14 0] 1 0
s 11.202369451 _1_ AGT  --- 37 tcp 1040 [0 0 0 0] ------- [1:0 4:0 32 0] [19 0] 0 0
r 11.202369451 _1_ RTR  --- 37 tcp 1040 [0 0 0 0] ------- [1:0 4:0 32 0] [19 0] 0 0
s 11.202369451 _1_ RTR  --- 37 tcp 1060 [0 0 0 0] ------- [1:0 4:0 30 4] [19 0] 0 0
r 11.204416614 _1_ AGT  --- 35 ack 60 [13a 1 4 800] ------- [4:0 1:0 30 1] [15 0] 1 0
s 11.204416614 _1_ AGT  --- 38 tcp 1040 [0 0 0 0] ------- [1:0 4:0 32 0] [20 0] 0 0
r 11.204416614 _1_ RTR  --- 38 tcp 1040 [0 0 0 0] ------- [1:0 4:0 32 0] [20 0] 0 0
s 11.204416614 _1_ RTR  --- 38 tcp 1060 [0 0 0 0] ------- [1:0 4:0 30 4] [20 0] 0 0
r 11.214722987 _4_ AGT  --- 32 tcp 1060 [13a 4 1 800] ------- [1:0 4:0 30 4] [16 0] 1 0
s 11.214722987 _4_ AGT  --- 39 ack 40 [0 0 0 0] ------- [4:0 1:0 32 0] [16 0] 0 0
r 11.214722987 _4_ RTR  --- 39 ack 40 [0 0 0 0] ------- [4:0 1:0 32 0] [16 0] 0 0
s 11.214722987 _4_ RTR  --- 39 ack 60 [0 0 0 0] ------- [4:0 1:0 30 1] [16 0] 0 0
r 11.224830151 _4_ AGT  --- 33 tcp 1060 [13a 4 1 800] ------- [1:0 4:0 30 4] [17 0] 1 0
s 11.224830151 _4_ AGT  --- 40 ack 40 [0 0 0 0] ------- [4:0 1:0 32 0] [17 0] 0 0
r 11.224830151 _4_ RTR  --- 40 ack 40 [0 0 0 0] ------- [4:0 1:0 32 0] [17 0] 0 0
s 11.224830151 _4_ RTR  --- 40 ack 60 [0 0 0 0] ------- [4:0 1:0 30 1] [17 0] 0 0
r 11.226956526 _1_ AGT  --- 39 ack 60 [13a 1 4 800] ------- [4:0 1:0 30 1] [16 0] 1 0
s 11.226956526 _1_ AGT  --- 41 tcp 1040 [0 0 0 0] ------- [1:0 4:0 32 0] [21 0] 0 0
r 11.226956526 _1_ RTR  --- 41 tcp 1040 [0 0 0 0] ------- [1:0 4:0 32 0] [21 0] 0 0
s 11.226956526 _1_ RTR  --- 41 tcp 1060 [0 0 0 0] ------- [1:0 4:0 30 4] [21 0] 0 0
r 11.229383692 _1_ AGT  --- 40 ack 60 [13a 1 4 800] ------- [4:0 1:0 30 1] [17 0] 1 0
s 11.229383692 _1_ AGT  --- 42 tcp 1040 [0 0 0 0] ------- [1:0 4:0 32 0] [22 0] 0 0
r 11.229383692 _1_ RTR  --- 42 tcp 1040 [0 0 0 0] ------- [1:0 4:0 32 0] [22 0] 0 0
s 11.229383692 _1_ AGT  --- 43 tcp 1040 [0 0 0 0] ------- [1:0 4:0 32 0] [23 0] 0 0
r 11.229383692 _1_ RTR  --- 43 tcp 1040 [0 0 0 0] ------- [1:0 4:0 32 0] [23 0] 0 0
s 11.229383692 _1_ RTR  --- 42 tcp 1060 [0 0 0 0] ------- [1:0 4:0 30 4] [22 0] 0 0
s 11.229383692 _1_ RTR  --- 43 tcp 1060 [0 0 0 0] ------- [1:0 4:0 30 4] [23 0] 0 0
r 11.239390067 _4_ AGT  --- 36 tcp 1060 [13a 4 1 800] ------- [1:0 4:0 30 4] [18 0] 1 0
s 11.239390067 _4_ AGT  --- 44 ack 40 [0 0 0 0] ------- [4:0 1:0 32 0] [18 0] 0 0
r 11.239390067 _4_ RTR  --- 44 ack 40 [0 0 0 0] ------- [4:0 1:0 32 0] [18 0] 0 0
s 11.239390067 _4_ RTR  --- 44 ack 60 [0 0 0 0] ------- [4:0 1:0 30 1] [18 0] 0 0
r 11.249677235 _4_ AGT  --- 37 tcp 1060 [13a 4 1 800] ------- [1:0 4:0 30 4] [19 0] 1 0
s 11.249677235 _4_ AGT  --- 45 ack 40 [0 0 0 0] ------- [4:0 1:0 32 0] [19 0] 0 0
r 11.249677235 _4_ RTR  --- 45 ack 40 [0 0 0 0] ------- [4:0 1:0 32 0] [19 0] 0 0
s 11.249677235 _4_ RTR  --- 45 ack 60 [0 0 0 0] ------- [4:0 1:0 30 1] [19 0] 0 0
r 11.251883612 _1_ AGT  --- 44 ack 60 [13a 1 4 800] ------- [4:0 1:0 30 1] [18 0] 1 0
s 11.251883612 _1_ AGT  --- 46 tcp 1040 [0 0 0 0] ------- [1:0 4:0 32 0] [24 0] 0 0
r 11.251883612 _1_ RTR  --- 46 tcp 1040 [0 0 0 0] ------- [1:0 4:0 32 0] [24 0] 0 0
s 11.251883612 _1_ RTR  --- 46 tcp 1060 [0 0 0 0] ------- [1:0 4:0 30 4] [24 0] 0 0
r 11.261949989 _4_ AGT  --- 38 tcp 1060 [13a 4 1 800] ------- [1:0 4:0 30 4] [20 0] 1 0
s 11.261949989 _4_ AGT  --- 47 ack 40 [0 0 0 0] ------- [4:0 1:0 32 0] [20 0] 0 0
r 11.261949989 _4_ RTR  --- 47 ack 40 [0 0 0 0] ------- [4:0 1:0 32 0] [20 0] 0 0
s 11.261949989 _4_ RTR  --- 47 ack 60 [0 0 0 0] ------- [4:0 1:0 30 1] [20 0] 0 0
r 11.264156367 _1_ AGT  --- 45 ack 60 [13a 1 4 800] ------- [4:0 1:0 30 1] [19 0] 1 0
s 11.264156367 _1_ AGT  --- 48 tcp 1040 [0 0 0 0] ------- [1:0 4:0 32 0] [25 0] 0 0
r 11.264156367 _1_ RTR  --- 48 tcp 1040 [0 0 0 0] ------- [1:0 4:0 32 0] [25 0] 0 0
s 11.264156367 _1_ RTR  --- 48 tcp 1060 [0 0 0 0] ------- [1:0 4:0 30 4] [25 0] 0 0
r 11.266183538 _1_ AGT  --- 47 ack 60 [13a 1 4 800] ------- [4:0 1:0 30 1] [20 0] 1 0
s 11.266183538 _1_ AGT  --- 49 tcp 1040 [0 0 0 0] ------- [1:0 4:0 32 0] [26 0] 0 0
r 11.266183538 _1_ RTR  --- 49 tcp 1040 [0 0 0 0] ------- [1:0 4:0 32 0] [26 0] 0 0
s 11.266183538 _1_ RTR  --- 49 tcp 1060 [0 0 0 0] ------- [1:0 4:0 30 4] [26 0] 0 0
r 11.276249917 _4_ AGT  --- 41 tcp 1060 [13a 4 1 800] ------- [1:0 4:0 30 4] [21 0] 1 0
s 11.276249917 _4_ AGT  --- 50 ack 40 [0 0 0 0] ------- [4:0 1:0 32 0] [21 0] 0 0
r 11.276249917 _4_ RTR  --- 50 ack 40 [0 0 0 0] ------- [4:0 1:0 32 0] [21 0] 0 0
s 11.276249917 _4_ RTR  --- 50 ack 60 [0 0 0 0] ------- [4:0 1:0 30 1] [21 0] 0 0
r 11.286457089 _4_ AGT  --- 42 tcp 1060 [13a 4 1 800] ------- [1:0 4:0 30 4] [22 0] 1 0
s 11.286457089 _4_ AGT  --- 51 ack 40 [0 0 0 0] ------- [4:0 1:0 32 0] [22 0] 0 0
r 11.286457089 _4_ RTR  --- 51 ack 40 [0 0 0 0] ------- [4:0 1:0 32 0] [22 0] 0 0
s 11.286457089 _4_ RTR  --- 51 ack 60 [0 0 0 0] ------- [4:0 1:0 30 1] [22 0] 0 0
r 11.296624263 _4_ AGT  --- 43 tcp 1060 [13a 4 1 800] ------- [1:0 4:0 30 4] [23 0] 1 0
s 11.296624263 _4_ AGT  --- 52 ack 40 [0 0 0 0] ------- [4:0 1:0 32 0] [23 0] 0 0
r 11.296624263 _4_ RTR  --- 52 ack 40 [0 0 0 0] ------- [4:0 1:0 32 0] [23 0] 0 0
s 11.296624263 _4_ RTR  --- 52 ack 60 [0 0 0 0] ------- [4:0 1:0 30 1] [23 0] 0 0
r 11.298710645 _1_ AGT  --- 50 ack 60 [13a 1 4 800] ------- [4:0 1:0 30 1] [21 0] 1 0
s 11.298710645 _1_ AGT  --- 53 tcp 1040 [0 0 0 0] ------- [1:0 4:0 32 0] [27 0] 0 0
r 11.298710645 _1_ RTR  --- 53 tcp 1040 [0 0 0 0] ------- [1:0 4:0 32 0] [27 0] 0 0
s 11.298710645 _1_ RTR  --- 53 tcp 1060 [0 0 0 0] ------- [1:0 4:0 30 4] [27 0] 0 0
r 11.308757026 _4_ AGT  --- 46 tcp 1060 [13a 4 1 800] ------- [1:0 4:0 30 4] [24 0] 1 0
s 11.308757026 _4_ AGT  --- 54 ack 40 [0 0 0 0] ------- [4:0 1:0 32 0] [24 0] 0 0
r 11.308757026 _4_ RTR  --- 54 ack 40 [0 0 0 0] ------- [4:0 1:0 32 0] [24 0] 0 0
s 11.308757026 _4_ RTR  --- 54 ack 60 [0 0 0 0] ------- [4:0 1:0 30 1] [24 0] 0 0
r 11.311123409 _1_ AGT  --- 51 ack 60 [13a 1 4 800] ------- [4:0 1:0 30 1] [22 0] 1 0
s 11.311123409 _1_ AGT  --- 55 tcp 1040 [0 0 0 0] ------- [1:0 4:0 32 0] [28 0] 0 0
r 11.311123409 _1_ RTR  --- 55 tcp 1040 [0 0 0 0] ------- [1:0 4:0 32 0] [28 0] 0 0
s 11.311123409 _1_ RTR  --- 55 tcp 1060 [0 0 0 0] ------- [1:0 4:0 30 4] [28 0] 0 0
r 11.321129792 _4_ AGT  --- 48 tcp 1060 [13a 4 1 800] ------- [1:0 4:0 30 4] [25 0] 1 0
s 11.321129792 _4_ AGT  --- 56 ack 40 [0 0 0 0] ------- [4:0 1:0 32 0] [25 0] 0 0
r 11.321129792 _4_ RTR  --- 56 ack 40 [0 0 0 0] ------- [4:0 1:0 32 0] [25 0] 0 0
s 11.321129792 _4_ RTR  --- 56 ack 60 [0 0 0 0] ------- [4:0 1:0 30 1] [25 0] 0 0
r 11.323216176 _1_ AGT  --- 52 ack 60 [13a 1 4 800] ------- [4:0 1:0 30 1] [23 0] 1 0
s 11.323216176 _1_ AGT  --- 57 tcp 1040 [0 0 0 0] ------- [1:0 4:0 32 0] [29 0] 0 0
r 11.323216176 _1_ RTR  --- 57 tcp 1040 [0 0 0 0] ------- [1:0 4:0 32 0] [29 0] 0 0
s 11.323216176 _1_ AGT  --- 58 tcp 1040 [0 0 0 0] ------- [1:0 4:0 32 0] [30 0] 0 0
r 11.323216176 _1_ RTR  --- 58 tcp 1040 [0 0 0 0] ------- [1:0 4:0 32 0] [30 0] 0 0
s 11.323216176 _1_ RTR  --- 57 tcp 1060 [0 0 0 0] ------- [1:0 4:0 30 4] [29 0] 0 0
s 11.323216176 _1_ RTR  --- 58 tcp 1060 [0 0 0 0] ------- [1:0 4:0 30 4] [30 0] 0 0
r 11.333262560 _4_ AGT  --- 49 tcp 1060 [13a 4 1 800] ------- [1:0 4:0 30 4] [26 0] 1 0
s 11.333262560 _4_ AGT  --- 59 ack 40 [0 0 0 0] ------- [4:0 1:0 32 0] [26 0] 0 0
r 11.333262560 _4_ RTR  --- 59 ack 40 [0 0 0 0] ------- [4:0 1:0 32 0] [26 0] 0 0
s 11.333262560 _4_ RTR  --- 59 ack 60 [0 0 0 0] ------- [4:0 1:0 30 1] [26 0] 0 0
r 11.343249740 _4_ AGT  --- 53 tcp 1060 [13a 4 1 800] ------- [1:0 4:0 30 4] [27 0] 1 0
s 11.343249740 _4_ AGT  --- 60 ack 40 [0 0 0 0] ------- [4:0 1:0 32 0] [27 0] 0 0
r 11.343249740 _4_ RTR  --- 60 ack 40 [0 0 0 0] ------- [4:0 1:0 32 0] [27 0] 0 0
s 11.343249740 _4_ RTR  --- 60 ack 60 [0 0 0 0] ------- [4:0 1:0 30 1] [27 0] 0 0
r 11.353376921 _4_ AGT  --- 55 tcp 1060 [13a 4 1 800] ------- [1:0 4:0 30 4] [28 0] 1 0
s 11.353376921 _4_ AGT  --- 61 ack 40 [0 0 0 0] ------- [4:0 1:0 32 0] [28 0] 0 0
r 11.353376921 _4_ RTR  --- 61 ack 40 [0 0 0 0] ------- [4:0 1:0 32 0] [28 0] 0 0
s 11.353376921 _4_ RTR  --- 61 ack 60 [0 0 0 0] ------- [4:0 1:0 30 1] [28 0] 0 0
r 11.355383308 _1_ AGT  --- 54 ack 60 [13a 1 4 800] ------- [4:0 1:0 30 1] [24 0] 1 0
s 11.355383308 _1_ AGT  --- 62 tcp 1040 [0 0 0 0] ------- [1:0 4:0 32 0] [31 0] 0 0
r 11.355383308 _1_ RTR  --- 62 tcp 1040 [0 0 0 0] ------- [1:0 4:0 32 0] [31 0] 0 0
s 11.355383308 _1_ RTR  --- 62 tcp 1060 [0 0 0 0] ------- [1:0 4:0 30 4] [31 0] 0 0
r 11.357690491 _1_ AGT  --- 56 ack 60 [13a 1 4 800] ------- [4:0 1:0 30 1] [25 0] 1 0
s 11.357690491 _1_ AGT  --- 63 tcp 1040 [0 0 0 0] ------- [1:0 4:0 32 0] [32 0] 0 0
r 11.357690491 _1_ RTR  --- 63 tcp 1040 [0 0 0 0] ------- [1:0 4:0 32 0] [32 0] 0 0
s 11.357690491 _1_ RTR  --- 63 tcp 1060 [0 0 0 0] ------- [1:0 4:0 30 4] [32 0] 0 0
r 11.367696879 _4_ AGT  --- 57 tcp 1060 [13a 4 1 800] ------- [1:0 4:0 30 4] [29 0] 1 0
s 11.367696879 _4_ AGT  --- 64 ack 40 [0 0 0 0] ------- [4:0 1:0 32 0] [29 0] 0 0
r 11.367696879 _4_ RTR  --- 64 ack 40 [0 0 0 0] ------- [4:0 1:0 32 0] [29 0] 0 0
s 11.367696879 _4_ RTR  --- 64 ack 60 [0 0 0 0] ------- [4:0 1:0 30 1] [29 0] 0 0
r 11.370083267 _1_ AGT  --- 59 ack 60 [13a 1 4 800] ------- [4:0 1:0 30 1] [26 0] 1 0
s 11.370083267 _1_ AGT  --- 65 tcp 1040 [0 0 0 0] ------- [1:0 4:0 32 0] [33 0] 0 0
r 11.370083267 _1_ RTR  --- 65 tcp 1040 [0 0 0 0] ------- [1:0 4:0 32 0] [33 0] 0 0
s 11.370083267 _1_ RTR  --- 65 tcp 1060 [0 0 0 0] ------- [1:0 4:0 30 4] [33 0] 0 0
r 11.380169656 _4_ AGT  --- 58 tcp 1060 [13a 4 1 800] ------- [1:0 4:0 30 4] [30 0] 1 0
s 11.380169656 _4_ AGT  --- 66 ack 40 [0 0 0 0] ------- [4:0 1:0 32 0] [30 0] 0 0
r 11.380169656 _4_ RTR  --- 66 ack 40 [0 0 0 0] ------- [4:0 1:0 32 0] [30 0] 0 0
s 11.380169656 _4_ RTR  --- 66 ack 60 [0 0 0 0] ------- [4:0 1:0 30 1] [30 0] 0 0
r 11.390316842 _4_ AGT  --- 62 tcp 1060 [13a 4 1 800] ------- [1:0 4:0 30 4] [31 0] 1 0
s 11.390316842 _4_ AGT  --- 67 ack 40 [0 0 0 0] ------- [4:0 1:0 32 0] [31 0] 0 0
r 11.390316842 _4_ RTR  --- 67 ack 40 [0 0 0 0] ------- [4:0 1:0 32 0] [31 0] 0 0
s 11.390316842 _4_ RTR  --- 67 ack 60 [0 0 0 0] ------- [4:0 1:0 30 1] [31 0] 0 0
r 11.400324030 _4_ AGT  --- 63 tcp 1060 [13a 4 1 800] ------- [1:0 4:0 30 4] [32 0] 1 0
s 11.400324030 _4_ AGT  --- 68 ack 40 [0 0 0 0] ------- [4:0 1:0 32 0] [32 0] 0 0
r 11.400324030 _4_ RTR  --- 68 ack 40 [0 0 0 0] ------- [4:0 1:0 32 0] [32 0] 0 0
s 11.400324030 _4_ RTR  --- 68 ack 60 [0 0 0 0] ------- [4:0 1:0 30 1] [32 0] 0 0
r 11.402350421 _1_ AGT  --- 60 ack 60 [13a 1 4 800] ------- [4:0 1:0 30 1] [27 0] 1 0
s 11.402350421 _1_ AGT  --- 69 tcp 1040 [0 0 0 0] ------- [1:0 4:0 32 0] [34 0] 0 0
r 11.402350421 _1_ RTR  --- 69 tcp 1040 [0 0 0 0] ------- [1:0 4:0 32 0] [34 0] 0 0
s 11.402350421 _1_ RTR  --- 69 tcp 1060 [0 0 0 0] ------- [1:0 4:0 30 4] [34 0] 0 0
r 11.404437610 _1_ AGT  --- 61 ack 60 [13a 1 4 800] ------- [4:0 1:0 30 1] [28 0] 1 0
s 11.404437610 _1_ AGT  --- 70 tcp 1040 [0 0 0 0] ------- [1:0 4:0 32 0] [35 0] 0 0
r 11.404437610 _1_ RTR  --- 70 tcp 1040 [0 0 0 0] ------- [1:0 4:0 32 0] [35 0] 0 0
s 11.404437610 _1_ RTR  --- 70 tcp 1060 [0 0 0 0] ------- [1:0 4:0 30 4] [35 0] 0 0
r 11.406424800 _1_ AGT  --- 64 ack 60 [13a 1 4 800] ------- [4:0 1:0 30 1] [29 0] 1 0
s 11.406424800 _1_ AGT  --- 71 tcp 1040 [0 0 0 0] ------- [1:0 4:0 32 0] [36 0] 0 0
r 11.406424800 _1_ RTR  --- 71 tcp 1040 [0 0 0 0] ------- [1:0 4:0 32 0] [36 0] 0 0
s 11.406424800 _1_ RTR  --- 71 tcp 1060 [0 0 0 0] ------- [1:0 4:0 30 4] [36 0] 0 0
r 11.408471989 _1_ AGT  --- 66 ack 60 [13a 1 4 800] ------- [4:0 1:0 30 1] [30 0] 1 0
s 11.408471989 _1_ AGT  --- 72 tcp 1040 [0 0 0 0] ------- [1:0 4:0 32 0] [37 0] 0 0
r 11.408471989 _1_ RTR  --- 72 tcp 1040 [0 0 0 0] ------- [1:0 4:0 32 0] [37 0] 0 0
s 11.408471989 _1_ RTR  --- 72 tcp 1060 [0 0 0 0] ------- [1:0 4:0 30 4] [37 0] 0 0
r 11.418518382 _4_ AGT  --- 65 tcp 1060 [13a 4 1 800] ------- [1:0 4:0 30 4] [33 0] 1 0
s 11.418518382 _4_ AGT  --- 73 ack 40 [0 0 0 0] ------- [4:0 1:0 32 0] [33 0] 0 0
r 11.418518382 _4_ RTR  --- 73 ack 40 [0 0 0 0] ------- [4:0 1:0 32 0] [33 0] 0 0
s 11.418518382 _4_ RTR  --- 73 ack 60 [0 0 0 0] ------- [4:0 1:0 30 1] [33 0] 0 0
r 11.420964775 _1_ AGT  --- 67 ack 60 [13a 1 4 800] ------- [4:0 1:0 30 1] [31 0] 1 0
s 11.420964775 _1_ AGT  --- 74 tcp 1040 [0 0 0 0] ------- [1:0 4:0 32 0] [38 0] 0 0
r 11.420964775 _1_ RTR  --- 74 tcp 1040 [0 0 0 0] ------- [1:0 4:0 32 0] [38 0] 0 0
s 11.420964775 _1_ AGT  --- 75 tcp 1040 [0 0 0 0] ------- [1:0 4:0 32 0] [39 0] 0 0
r 11.420964775 _1_ RTR  --- 75 tcp 1040 [0 0 0 0] ------- [1:0 4:0 32 0] [39 0] 0 0
s 11.420964775 _1_ RTR  --- 74 tcp 1060 [0 0 0 0] ------- [1:0 4:0 30 4] [38 0] 0 0