V -t * -v 1.0a5 -a 0
A -t * -n 1 -p 0 -o 0xffffffff -c 31 -a 1
A -t * -h 1 -m 2147483647 -s 0
c -t * -i 1 -n Red
c -t * -i 2 -n Green
n -t * -a 0 -s 0 -S UP -v circle -c black -i black
n -t * -a 1 -s 1 -S UP -v circle -c black -i black
n -t * -a 2 -s 2 -S UP -v hexagon -c Blue -i Blue
n -t * -a 3 -s 3 -S UP -v circle -c black -i black
l -t * -s 0 -d 2 -S UP -r 2000000 -D 0.01 -c black -o right-down
l -t * -s 1 -d 2 -S UP -r 2000000 -D 0.01 -c black -o right-up
l -t * -s 2 -d 3 -S UP -r 2500000 -D 0.02 -c black -o right
+ -t 1 -s 1 -d 2 -p cbr -e 210 -c 2 -i 0 -a 2 -x {1.0 3.1 0 ------- null}
- -t 1 -s 1 -d 2 -p cbr -e 210 -c 2 -i 0 -a 2 -x {1.0 3.1 0 ------- null}
h -t 1 -s 1 -d 2 -p cbr -e 210 -c 2 -i 0 -a 2 -x {1.0 3.1 -1 ------- null}
+ -t 1.00375 -s 1 -d 2 -p cbr -e 210 -c 2 -i 1 -a 2 -x {1.0 3.1 1 ------- null}
- -t 1.00375 -s 1 -d 2 -p cbr -e 210 -c 2 -i 1 -a 2 -x {1.0 3.1 1 ------- null}
h -t 1.00375 -s 1 -d 2 -p cbr -e 210 -c 2 -i 1 -a 2 -x {1.0 3.1 -1 ------- null}
+ -t 1.0075 -s 1 -d 2 -p cbr -e 210 -c 2 -i 2 -a 2 -x {1.0 3.1 2 ------- null}
- -t 1.0075 -s 1 -d 2 -p cbr -e 210 -c 2 -i 2 -a 2 -x {1.0 3.1 2 ------- null}
h -t 1.0075 -s 1 -d 2 -p cbr -e 210 -c 2 -i 2 -a 2 -x {1.0 3.1 -1 ------- null}
r -t 1.01084 -s 1 -d 2 -p cbr -e 210 -c 2 -i 0 -a 2 -x {1.0 3.1 0 ------- null}
+ -t 1.01084 -s 2 -d 3 -p cbr -e 210 -c 2 -i 0 -a 2 -x {1.0 3.1 0 ------- null}
- -t 1.01084 -s 2 -d 3 -p cbr -e 210 -c 2 -i 0 -a 2 -x {1.0 3.1 0 ------- null}
h -t 1.01084 -s 2 -d 3 -p cbr -e 210 -c 2 -i 0 -a 2 -x {1.0 3.1 -1 ------- null}
+ -t 1.01125 -s 1 -d 2 -p cbr -e 210 -c 2 -i 3 -a 2 -x {1.0 3.1 3 ------- null}
- -t 1.01125 -s 1 -d 2 -p cbr -e 210 -c 2 -i 3 -a 2 -x {1.0 3.1 3 ------- null}
h -t 1.01125 -s 1 -d 2 -p cbr -e 210 -c 2 -i 3 -a 2 -x {1.0 3.1 -1 ------- null}
r -t 1.01459 -s 1 -d 2 -p cbr -e 210 -c 2 -i 1 -a 2 -x {1.0 3.1 1 ------- null}
+ -t 1.01459 -s 2 -d 3 -p cbr -e 210 -c 2 -i 1 -a 2 -x {1.0 3.1 1 ------- null}
- -t 1.01459 -s 2 -d 3 -p cbr -e 210 -c 2 -i 1 -a 2 -x {1.0 3.1 1 ------- null}
h -t 1.01459 -s 2 -d 3 -p cbr -e 210 -c 2 -i 1 -a 2 -x {1.0 3.1 -1 ------- null}
+ -t 1.015 -s 1 -d 2 -p cbr -e 210 -c 2 -i 4 -a 2 -x {1.0 3.1 4 ------- null}
- -t 1.015 -s 1 -d 2 -p cbr -e 210 -c 2 -i 4 -a 2 -x {1.0 3.1 4 ------- null}
h -t 1.015 -s 1 -d 2 -p cbr -e 210 -c 2 -i 4 -a 2 -x {1.0 3.1 -1 ------- null}
r -t 1.01834 -s 1 -d 2 -p cbr -e 210 -c 2 -i 2 -a 2 -x {1.0 3.1 2 ------- null}
+ -t 1.01834 -s 2 -d 3 -p cbr -e 210 -c 2 -i 2 -a 2 -x {1.0 3.1 2 ------- null}
- -t 1.01834 -s 2 -d 3 -p cbr -e 210 -c 2 -i 2 -a 2 -x {1.0 3.1 2 ------- null}
h -t 1.01834 -s 2 -d 3 -p cbr -e 210 -c 2 -i 2 -a 2 -x {1.0 3.1 -1 ------- null}
+ -t 1.01875 -s 1 -d 2 -p cbr -e 210 -c 2 -i 5 -a 2 -x {1.0 3.1 5 ------- null}
- -t 1.01875 -s 1 -d 2 -p cbr -e 210 -c 2 -i 5 -a 2 -x {1.0 3.1 5 ------- null}
h -t 1.01875 -s 1 -d 2 -p cbr -e 210 -c 2 -i 5 -a 2 -x {1.0 3.1 -1 ------- null}
r -t 1.02209 -s 1 -d 2 -p cbr -e 210 -c 2 -i 3 -a 2 -x {1.0 3.1 3 ------- null}
+ -t 1.02209 -s 2 -d 3 -p cbr -e 210 -c 2 -i 3 -a 2 -x {1.0 3.1 3 ------- null}
- -t 1.02209 -s 2 -d 3 -p cbr -e 210 -c 2 -i 3 -a 2 -x {1.0 3.1 3 ------- null}
h -t 1.02209 -s 2 -d 3 -p cbr -e 210 -c 2 -i 3 -a 2 -x {1.0 3.1 -1 ------- null}
+ -t 1.0225 -s 1 -d 2 -p cbr -e 210 -c 2 -i 6 -a 2 -x {1.0 3.1 6 ------- null}
- -t 1.0225 -s 1 -d 2 -p cbr -e 210 -c 2 -i 6 -a 2 -x {1.0 3.1 6 ------- null}
h -t 1.0225 -s 1 -d 2 -p cbr -e 210 -c 2 -i 6 -a 2 -x {1.0 3.1 -1 ------- null}
r -t 1.02584 -s 1 -d 2 -p cbr -e 210 -c 2 -i 4 -a 2 -x {1.0 3.1 4 ------- null}
+ -t 1.02584 -s 2 -d 3 -p cbr -e 210 -c 2 -i 4 -a 2 -x {1.0 3.1 4 ------- null}
- -t 1.02584 -s 2 -d 3 -p cbr -e 210 -c 2 -i 4 -a 2 -x {1.0 3.1 4 ------- null}
h -t 1.02584 -s 2 -d 3 -p cbr -e 210 -c 2 -i 4 -a 2 -x {1.0 3.1 -1 ------- null}
+ -t 1.02625 -s 1 -d 2 -p cbr -e 210 -c 2 -i 7 -a 2 -x {1.0 3.1 7 ------- null}
- -t 1.02625 -s 1 -d 2 -p cbr -e 210 -c 2 -i 7 -a 2 -x {1.0 3.1 7 ------- null}
h -t 1.02625 -s 1 -d 2 -p cbr -e 210 -c 2 -i 7 -a 2 -x {1.0 3.1 -1 ------- null}
r -t 1.02959 -s 1 -d 2 -p cbr -e 210 -c 2 -i 5 -a 2 -x {1.0 3.1 5 ------- null}
+ -t 1.02959 -s 2 -d 3 -p cbr -e 210 -c 2 -i 5 -a 2 -x {1.0 3.1 5 ------- null}
- -t 1.02959 -s 2 -d 3 -p cbr -e 210 -c 2 -i 5 -a 2 -x {1.0 3.1 5 ------- null}
h -t 1.02959 -s 2 -d 3 -p cbr -e 210 -c 2 -i 5 -a 2 -x {1.0 3.1 -1 ------- null}
+ -t 1.03 -s 1 -d 2 -p cbr -e 210 -c 2 -i 8 -a 2 -x {1.0 3.1 8 ------- null}
- -t 1.03 -s 1 -d 2 -p cbr -e 210 -c 2 -i 8 -a 2 -x {1.0 3.1 8 ------- null}
h -t 1.03 -s 1 -d 2 -p cbr -e 210 -c 2 -i 8 -a 2 -x {1.0 3.1 -1 ------- null}
r -t 1.031512 -s 2 -d 3 -p cbr -e 210 -c 2 -i 0 -a 2 -x {1.0 3.1 0 ------- null}
r -t 1.03334 -s 1 -d 2 -p cbr -e 210 -c 2 -i 6 -a 2 -x {1.0 3.1 6 ------- null}
+ -t 1.03334 -s 2 -d 3 -p cbr -e 210 -c 2 -i 6 -a 2 -x {1.0 3.1 6 ------- null}
- -t 1.03334 -s 2 -d 3 -p cbr -e 210 -c 2 -i 6 -a 2 -x {1.0 3.1 6 ------- null}
h -t 1.03334 -s 2 -d 3 -p cbr -e 210 -c 2 -i 6 -a 2 -x {1.0 3.1 -1 ------- null}
+ -t 1.03375 -s 1 -d 2 -p cbr -e 210 -c 2 -i 9 -a 2 -x {1.0 3.1 9 ------- null}
- -t 1.03375 -s 1 -d 2 -p cbr -e 210 -c 2 -i 9 -a 2 -x {1.0 3.1 9 ------- null}
h -t 1.03375 -s 1 -d 2 -p cbr -e 210 -c 2 -i 9 -a 2 -x {1.0 3.1 -1 ------- null}
r -t 1.035262 -s 2 -d 3 -p cbr -e 210 -c 2 -i 1 -a 2 -x {1.0 3.1 1 ------- null}
r -t 1.03709 -s 1 -d 2 -p cbr -e 210 -c 2 -i 7 -a 2 -x {1.0 3.1 7 ------- null}
+ -t 1.03709 -s 2 -d 3 -p cbr -e 210 -c 2 -i 7 -a 2 -x {1.0 3.1 7 ------- null}
- -t 1.03709 -s 2 -d 3 -p cbr -e 210 -c 2 -i 7 -a 2 -x {1.0 3.1 7 ------- null}
h -t 1.03709 -s 2 -d 3 -p cbr -e 210 -c 2 -i 7 -a 2 -x {1.0 3.1 -1 ------- null}
+ -t 1.0375 -s 1 -d 2 -p cbr -e 210 -c 2 -i 10 -a 2 -x {1.0 3.1 10 ------- null}
- -t 1.0375 -s 1 -d 2 -p cbr -e 210 -c 2 -i 10 -a 2 -x {1.0 3.1 10 ------- null}
h -t 1.0375 -s 1 -d 2 -p cbr -e 210 -c 2 -i 10 -a 2 -x {1.0 3.1 -1 ------- null}
r -t 1.039012 -s 2 -d 3 -p cbr -e 210 -c 2 -i 2 -a 2 -x {1.0 3.1 2 ------- null}
r -t 1.04084 -s 1 -d 2 -p cbr -e 210 -c 2 -i 8 -a 2 -x {1.0 3.1 8 ------- null}
+ -t 1.04084 -s 2 -d 3 -p cbr -e 210 -c 2 -i 8 -a 2 -x {1.0 3.1 8 ------- null}
- -t 1.04084 -s 2 -d 3 -p cbr -e 210 -c 2 -i 8 -a 2 -x {1.0 3.1 8 ------- null}
h -t 1.04084 -s 2 -d 3 -p cbr -e 210 -c 2 -i 8 -a 2 -x {1.0 3.1 -1 ------- null}
+ -t 1.04125 -s 1 -d 2 -p cbr -e 210 -c 2 -i 11 -a 2 -x {1.0 3.1 11 ------- null}
- -t 1.04125 -s 1 -d 2 -p cbr -e 210 -c 2 -i 11 -a 2 -x {1.0 3.1 11 ------- null}
h -t 1.04125 -s 1 -d 2 -p cbr -e 210 -c 2 -i 11 -a 2 -x {1.0 3.1 -1 ------- null}
r -t 1.042762 -s 2 -d 3 -p cbr -e 210 -c 2 -i 3 -a 2 -x {1.0 3.1 3 ------- null}
r -t 1.04459 -s 1 -d 2 -p cbr -e 210 -c 2 -i 9 -a 2 -x {1.0 3.1 9 ------- null}
+ -t 1.04459 -s 2 -d 3 -p cbr -e 210 -c 2 -i 9 -a 2 -x {1.0 3.1 9 ------- null}
- -t 1.04459 -s 2 -d 3 -p cbr -e 210 -c 2 -i 9 -a 2 -x {1.0 3.1 9 ------- null}
h -t 1.04459 -s 2 -d 3 -p cbr -e 210 -c 2 -i 9 -a 2 -x {1.0 3.1 -1 ------- null}
+ -t 1.045 -s 1 -d 2 -p cbr -e 210 -c 2 -i 12 -a 2 -x {1.0 3.1 12 ------- null}
- -t 1.045 -s 1 -d 2 -p cbr -e 210 -c 2 -i 12 -a 2 -x {1.0 3.1 12 ------- null}
h -t 1.045 -s 1 -d 2 -p cbr -e 210 -c 2 -i 12 -a 2 -x {1.0 3.1 -1 ------- null}
r -t 1.046512 -s 2 -d 3 -p cbr -e 210 -c 2 -i 4 -a 2 -x {1.0 3.1 4 ------- null}
r -t 1.04834 -s 1 -d 2 -p cbr -e 210 -c 2 -i 10 -a 2 -x {1.0 3.1 10 ------- null}
+ -t 1.04834 -s 2 -d 3 -p cbr -e 210 -c 2 -i 10 -a 2 -x {1.0 3.1 10 ------- null}
- -t 1.04834 -s 2 -d 3 -p cbr -e 210 -c 2 -i 10 -a 2 -x {1.0 3.1 10 ------- null}
h -t 1.04834 -s 2 -d 3 -p cbr -e 210 -c 2 -i 10 -a 2 -x {1.0 3.1 -1 ------- null}
+ -t 1.04875 -s 1 -d 2 -p cbr -e 210 -c 2 -i 13 -a 2 -x {1.0 3.1 13 ------- null}
- -t 1.04875 -s 1 -d 2 -p cbr -e 210 -c 2 -i 13 -a 2 -x {1.0 3.1 13 ------- null}
h -t 1.04875 -s 1 -d 2 -p cbr -e 210 -c 2 -i 13 -a 2 -x {1.0 3.1 -1 ------- null}
r -t 1.050262 -s 2 -d 3 -p cbr -e 210 -c 2 -i 5 -a 2 -x {1.0 3.1 5 ------- null}
r -t 1.05209 -s 1 -d 2 -p cbr -e 210 -c 2 -i 11 -a 2 -x {1.0 3.1 11 ------- null}
+ -t 1.05209 -s 2 -d 3 -p cbr -e 210 -c 2 -i 11 -a 2 -x {1.0 3.1 11 ------- null}
- -t 1.05209 -s 2 -d 3 -p cbr -e 210 -c 2 -i 11 -a 2 -x {1.0 3.1 11 ------- null}
h -t 1.05209 -s 2 -d 3 -p cbr -e 210 -c 2 -i 11 -a 2 -x {1.0 3.1 -1 ------- null}
+ -t 1.0525 -s 1 -d 2 -p cbr -e 210 -c 2 -i 14 -a 2 -x {1.0 3.1 14 ------- null}
- -t 1.0525 -s 1 -d 2 -p cbr -e 210 -c 2 -i 14 -a 2 -x {1.0 3.1 14 ------- null}
h -t 1.0525 -s 1 -d 2 -p cbr -e 210 -c 2 -i 14 -a 2 -x {1.0 3.1 -1 ------- null}
r -t 1.054012 -s 2 -d 3 -p cbr -e 210 -c 2 -i 6 -a 2 -x {1.0 3.1 6 ------- null}
r -t 1.05584 -s 1 -d 2 -p cbr -e 210 -c 2 -i 12 -a 2 -x {1.0 3.1 12 ------- null}
+ -t 1.05584 -s 2 -d 3 -p cbr -e 210 -c 2 -i 12 -a 2 -x {1.0 3.1 12 ------- null}
- -t 1.05584 -s 2 -d 3 -p cbr -e 210 -c 2 -i 12 -a 2 -x {1.0 3.1 12 ------- null}
h -t 1.05584 -s 2 -d 3 -p cbr -e 210 -c 2 -i 12 -a 2 -x {1.0 3.1 -1 ------- null}
+ -t 1.05625 -s 1 -d 2 -p cbr -e 210 -c 2 -i 15 -a 2 -x {1.0 3.1 15 ------- null}
- -t 1.05625 -s 1 -d 2 -p cbr -e 210 -c 2 -i 15 -a 2 -x {1.0 3.1 15 ------- null}
h -t 1.05625 -s 1 -d 2 -p cbr -e 210 -c 2 -i 15 -a 2 -x {1.0 3.1 -1 ------- null}
r -t 1.057762 -s 2 -d 3 -p cbr -e 210 -c 2 -i 7 -a 2 -x {1.0 3.1 7 ------- null}
r -t 1.05959 -s 1 -d 2 -p cbr -e 210 -c 2 -i 13 -a 2 -x {1.0 3.1 13 ------- null}
+ -t 1.05959 -s 2 -d 3 -p cbr -e 210 -c 2 -i 13 -a 2 -x {1.0 3.1 13 ------- null}
- -t 1.05959 -s 2 -d 3 -p cbr -e 210 -c 2 -i 13 -a 2 -x {1.0 3.1 13 ------- null}
h -t 1.05959 -s 2 -d 3 -p cbr -e 210 -c 2 -i 13 -a 2 -x {1.0 3.1 -1 ------- null}
+ -t 1.06 -s 1 -d 2 -p cbr -e 210 -c 2 -i 16 -a 2 -x {1.0 3.1 16 ------- null}
- -t 1.06 -s 1 -d 2 -p cbr -e 210 -c 2 -i 16 -a 2 -x {1.0 3.1 16 ------- null}
h -t 1.06 -s 1 -d 2 -p cbr -e 210 -c 2 -i 16 -a 2 -x {1.0 3.1 -1 ------- null}
r -t 1.061512 -s 2 -d 3 -p cbr -e 210 -c 2 -i 8 -a 2 -x {1.0 3.1 8 ------- null}
r -t 1.06334 -s 1 -d 2 -p cbr -e 210 -c 2 -i 14 -a 2 -x {1.0 3.1 14 ------- null}
+ -t 1.06334 -s 2 -d 3 -p cbr -e 210 -c 2 -i 14 -a 2 -x {1.0 3.1 14 ------- null}
- -t 1.06334 -s 2 -d 3 -p cbr -e 210 -c 2 -i 14 -a 2 -x {1.0 3.1 14 ------- null}
h -t 1.06334 -s 2 -d 3 -p cbr -e 210 -c 2 -i 14 -a 2 -x {1.0 3.1 -1 ------- null}
+ -t 1.06375 -s 1 -d 2 -p cbr -e 210 -c 2 -i 17 -a 2 -x {1.0 3.1 17 ------- null}
- -t 1.06375 -s 1 -d 2 -p cbr -e 210 -c 2 -i 17 -a 2 -x {1.0 3.1 17 ------- null}
h -t 1.06375 -s 1 -d 2 -p cbr -e 210 -c 2 -i 17 -a 2 -x {1.0 3.1 -1 ------- null}
r -t 1.065262 -s 2 -d 3 -p cbr -e 210 -c 2 -i 9 -a 2 -x {1.0 3.1 9 ------- null}
r -t 1.06709 -s 1 -d 2 -p cbr -e 210 -c 2 -i 15 -a 2 -x {1.0 3.1 15 ------- null}
+ -t 1.06709 -s 2 -d 3 -p cbr -e 210 -c 2 -i 15 -a 2 -x {1.0 3.1 15 ------- null}
- -t 1.06709 -s 2 -d 3 -p cbr -e 210 -c 2 -i 15 -a 2 -x {1.0 3.1 15 ------- null}
h -t 1.06709 -s 2 -d 3 -p cbr -e 210 -c 2 -i 15 -a 2 -x {1.0 3.1 -1 ------- null}
+ -t 1.0675 -s 1 -d 2 -p cbr -e 210 -c 2 -i 18 -a 2 -x {1.0 3.1 18 ------- null}
- -t 1.0675 -s 1 -d 2 -p cbr -e 210 -c 2 -i 18 -a 2 -x {1.0 3.1 18 ------- null}
h -t 1.0675 -s 1 -d 2 -p cbr -e 210 -c 2 -i 18 -a 2 -x {1.0 3.1 -1 ------- null}
r -t 1.069012 -s 2 -d 3 -p cbr -e 210 -c 2 -i 10 -a 2 -x {1.0 3.1 10 ------- null}
r -t 1.07084 -s 1 -d 2 -p cbr -e 210 -c 2 -i 16 -a 2 -x {1.0 3.1 16 ------- null}
+ -t 1.07084 -s 2 -d 3 -p cbr -e 210 -c 2 -i 16 -a 2 -x {1.0 3.1 16 ------- null}
- -t 1.07084 -s 2 -d 3 -p cbr -e 210 -c 2 -i 16 -a 2 -x {1.0 3.1 16 ------- null}
h -t 1.07084 -s 2 -d 3 -p cbr -e 210 -c 2 -i 16 -a 2 -x {1.0 3.1 -1 ------- null}
+ -t 1.07125 -s 1 -d 2 -p cbr -e 210 -c 2 -i 19 -a 2 -x {1.0 3.1 19 ------- null}
- -t 1.07125 -s 1 -d 2 -p cbr -e 210 -c 2 -i 19 -a 2 -x {1.0 3.1 19 ------- null}
h -t 1.07125 -s 1 -d 2 -p cbr -e 210 -c 2 -i 19 -a 2 -x {1.0 3.1 -1 ------- null}
r -t 1.072762 -s 2 -d 3 -p cbr -e 210 -c 2 -i 11 -a 2 -x {1.0 3.1 11 ------- null}
r -t 1.07459 -s 1 -d 2 -p cbr -e 210 -c 2 -i 17 -a 2 -x {1.0 3.1 17 ------- null}
+ -t 1.07459 -s 2 -d 3 -p cbr -e 210 -c 2 -i 17 -a 2 -x {1.0 3.1 17 ------- null}
- -t 1.07459 -s 2 -d 3 -p cbr -e 210 -c 2 -i 17 -a 2 -x {1.0 3.1 17 ------- null}
h -t 1.07459 -s 2 -d 3 -p cbr -e 210 -c 2 -i 17 -a 2 -x {1.0 3.1 -1 ------- null}
+ -t 1.075 -s 1 -d 2 -p cbr -e 210 -c 2 -i 20 -a 2 -x {1.0 3.1 20 ------- null}
- -t 1.075 -s 1 -d 2 -p cbr -e 210 -c 2 -i 20 -a 2 -x {1.0 3.1 20 ------- null}
h -t 1.075 -s 1 -d 2 -p cbr -e 210 -c 2 -i 20 -a 2 -x {1.0 3.1 -1 ------- null}
r -t 1.076512 -s 2 -d 3 -p cbr -e 210 -c 2 -i 12 -a 2 -x {1.0 3.1 12 ------- null}
r -t 1.07834 -s 1 -d 2 -p cbr -e 210 -c 2 -i 18 -a 2 -x {1.0 3.1 18 ------- null}
+ -t 1.07834 -s 2 -d 3 -p cbr -e 210 -c 2 -i 18 -a 2 -x {1.0 3.1 18 ------- null}
- -t 1.07834 -s 2 -d 3 -p cbr -e 210 -c 2 -i 18 -a 2 -x {1.0 3.1 18 ------- null}
h -t 1.07834 -s 2 -d 3 -p cbr -e 210 -c 2 -i 18 -a 2 -x {1.0 3.1 -1 ------- null}
+ -t 1.07875 -s 1 -d 2 -p cbr -e 210 -c 2 -i 21 -a 2 -x {1.0 3.1 21 ------- null}
- -t 1.07875 -s 1 -d 2 -p cbr -e 210 -c 2 -i 21 -a 2 -x {1.0 3.1 21 ------- null}
h -t 1.07875 -s 1 -d 2 -p cbr -e 210 -c 2 -i 21 -a 2 -x {1.0 3.1 -1 ------- null}
r -t 1.080262 -s 2 -d 3 -p cbr -e 210 -c 2 -i 13 -a 2 -x {1.0 3.1 13 ------- null}
r -t 1.08209 -s 1 -d 2 -p cbr -e 210 -c 2 -i 19 -a 2 -x {1.0 3.1 19 ------- null}
+ -t 1.08209 -s 2 -d 3 -p cbr -e 210 -c 2 -i 19 -a 2 -x {1.0 3.1 19 ------- null}
- -t 1.08209 -s 2 -d 3 -p cbr -e 210 -c 2 -i 19 -a 2 -x {1.0 3.1 19 ------- null}
h -t 1.08209 -s 2 -d 3 -p cbr -e 210 -c 2 -i 19 -a 2 -x {1.0 3.1 -1 ------- null}
+ -t 1.0825 -s 1 -d 2 -p cbr -e 210 -c 2 -i 22 -a 2 -x {1.0 3.1 22 ------- null}
- -t 1.0825 -s 1 -d 2 -p cbr -e 210 -c 2 -i 22 -a 2 -x {1.0 3.1 22 ------- null}
h -t 1.0825 -s 1 -d 2 -p cbr -e 210 -c 2 -i 22 -a 2 -x {1.0 3.1 -1 ------- null}
r -t 1.084012 -s 2 -d 3 -p cbr -e 210 -c 2 -i 14 -a 2 -x {1.0 3.1 14 ------- null}
r -t 1.08584 -s 1 -d 2 -p cbr -e 210 -c 2 -i 20 -a 2 -x {1.0 3.1 20 ------- null}
+ -t 1.08584 -s 2 -d 3 -p cbr -e 210 -c 2 -i 20 -a 2 -x {1.0 3.1 20 ------- null}
- -t 1.08584 -s 2 -d 3 -p cbr -e 210 -c 2 -i 20 -a 2 -x {1.0 3.1 20 ------- null}
h -t 1.08584 -s 2 -d 3 -p cbr -e 210 -c 2 -i 20 -a 2 -x {1.0 3.1 -1 ------- null}
+ -t 1.08625 -s 1 -d 2 -p cbr -e 210 -c 2 -i 23 -a 2 -x {1.0 3.1 23 ------- null}
- -t 1.08625 -s 1 -d 2 -p cbr -e 210 -c 2 -i 23 -a 2 -x {1.0 3.1 23 ------- null}
h -t 1.08625 -s 1 -d 2 -p cbr -e 210 -c 2 -i 23 -a 2 -x {1.0 3.1 -1 ------- null}
r -t 1.087762 -s 2 -d 3 -p cbr -e 210 -c 2 -i 15 -a 2 -x {1.0 3.1 15 ------- null}
r -t 1.08959 -s 1 -d 2 -p cbr -e 210 -c 2 -i 21 -a 2 -x {1.0 3.1 21 ------- null}
+ -t 1.08959 -s 2 -d 3 -p cbr -e 210 -c 2 -i 21 -a 2 -x {1.0 3.1 21 ------- null}
- -t 1.08959 -s 2 -d 3 -p cbr -e 210 -c 2 -i 21 -a 2 -x {1.0 3.1 21 ------- null}
h -t 1.08959 -s 2 -d 3 -p cbr -e 210 -c 2 -i 21 -a 2 -x {1.0 3.1 -1 ------- null}
+ -t 1.09 -s 1 -d 2 -p cbr -e 210 -c 2 -i 24 -a 2 -x {1.0 3.1 24 ------- null}
- -t 1.09 -s 1 -d 2 -p cbr -e 210 -c 2 -i 24 -a 2 -x {1.0 3.1 24 ------- null}
h -t 1.09 -s 1 -d 2 -p cbr -e 210 -c 2 -i 24 -a 2 -x {1.0 3.1 -1 ------- null}
r -t 1.091512 -s 2 -d 3 -p cbr -e 210 -c 2 -i 16 -a 2 -x {1.0 3.1 16 ------- null}
r -t 1.09334 -s 1 -d 2 -p cbr -e 210 -c 2 -i 22 -a 2 -x {1.0 3.1 22 ------- null}
+ -t 1.09334 -s 2 -d 3 -p cbr -e 210 -c 2 -i 22 -a 2 -x {1.0 3.1 22 ------- null}
- -t 1.09334 -s 2 -d 3 -p cbr -e 210 -c 2 -i 22 -a 2 -x {1.0 3.1 22 ------- null}
h -t 1.09334 -s 2 -d 3 -p cbr -e 210 -c 2 -i 22 -a 2 -x {1.0 3.1 -1 ------- null}
+ -t 1.09375 -s 1 -d 2 -p cbr -e 210 -c 2 -i 25 -a 2 -x {1.0 3.1 25 ------- null}
- -t 1.09375 -s 1 -d 2 -p cbr -e 210 -c 2 -i 25 -a 2 -x {1.0 3.1 25 ------- null}
h -t 1.09375 -s 1 -d 2 -p cbr -e 210 -c 2 -i 25 -a 2 -x {1.0 3.1 -1 ------- null}
r -t 1.095262 -s 2 -d 3 -p cbr -e 210 -c 2 -i 17 -a 2 -x {1.0 3.1 17 ------- null}
r -t 1.09709 -s 1 -d 2 -p cbr -e 210 -c 2 -i 23 -a 2 -x {1.0 3.1 23 ------- null}
+ -t 1.09709 -s 2 -d 3 -p cbr -e 210 -c 2 -i 23 -a 2 -x {1.0 3.1 23 ------- null}
- -t 1.09709 -s 2 -d 3 -p cbr -e 210 -c 2 -i 23 -a 2 -x {1.0 3.1 23 ------- null}
h -t 1.09709 -s 2 -d 3 -p cbr -e 210 -c 2 -i 23 -a 2 -x {1.0 3.1 -1 ------- null}
+ -t 1.0975 -s 1 -d 2 -p cbr -e 210 -c 2 -i 26 -a 2 -x {1.0 3.1 26 ------- null}
- -t 1.0975 -s 1 -d 2 -p cbr -e 210 -c 2 -i 26 -a 2 -x {1.0 3.1 26 ------- null}
h -t 1.0975 -s 1 -d 2 -p cbr -e 210 -c 2 -i 26 -a 2 -x {1.0 3.1 -1 ------- null}
r -t 1.099012 -s 2 -d 3 -p cbr -e 210 -c 2 -i 18 -a 2 -x {1.0 3.1 18 ------- null}
r -t 1.10084 -s 1 -d 2 -p cbr -e 210 -c 2 -i 24 -a 2 -x {1.0 3.1 24 ------- null}
+ -t 1.10084 -s 2 -d 3 -p cbr -e 210 -c 2 -i 24 -a 2 -x {1.0 3.1 24 ------- null}
- -t 1.10084 -s 2 -d 3 -p cbr -e 210 -c 2 -i 24 -a 2 -x {1.0 3.1 24 ------- null}
h -t 1.10084 -s 2 -d 3 -p cbr -e 210 -c 2 -i 24 -a 2 -x {1.0 3.1 -1 ------- null}
+ -t 1.10125 -s 1 -d 2 -p cbr -e 210 -c 2 -i 27 -a 2 -x {1.0 3.1 27 ------- null}
- -t 1.10125 -s 1 -d 2 -p cbr -e 210 -c 2 -i 27 -a 2 -x {1.0 3.1 27 ------- null}
h -t 1.10125 -s 1 -d 2 -p cbr -e 210 -c 2 -i 27 -a 2 -x {1.0 3.1 -1 ------- null}
r -t 1.102762 -s 2 -d 3 -p cbr -e 210 -c 2 -i 19 -a 2 -x {1.0 3.1 19 ------- null}
r -t 1.10459 -s 1 -d 2 -p cbr -e 210 -c 2 -i 25 -a 2 -x {1.0 3.1 25 ------- null}
+ -t 1.10459 -s 2 -d 3 -p cbr -e 210 -c 2 -i 25 -a 2 -x {1.0 3.1 25 ------- null}
- -t 1.10459 -s 2 -d 3 -p cbr -e 210 -c 2 -i 25 -a 2 -x {1.0 3.1 25 ------- null}
h -t 1.10459 -s 2 -d 3 -p cbr -e 210 -c 2 -i 25 -a 2 -x {1.0 3.1 -1 ------- null}
+ -t 1.105 -s 1 -d 2 -p cbr -e 210 -c 2 -i 28 -a 2 -x {1.0 3.1 28 ------- null}
- -t 1.105 -s 1 -d 2 -p cbr -e 210 -c 2 -i 28 -a 2 -x {1.0 3.1 28 ------- null}
h -t 1.105 -s 1 -d 2 -p cbr -e 210 -c 2 -i 28 -a 2 -x {1.0 3.1 -1 ------- null}
r -t 1.106512 -s 2 -d 3 -p cbr -e 210 -c 2 -i 20 -a 2 -x {1.0 3.1 20 ------- null}
r -t 1.10834 -s 1 -d 2 -p cbr -e 210 -c 2 -i 26 -a 2 -x {1.0 3.1 26 ------- null}
+ -t 1.10834 -s 2 -d 3 -p cbr -e 210 -c 2 -i 26 -a 2 -x {1.0 3.1 26 ------- null}
- -t 1.10834 -s 2 -d 3 -p cbr -e 210 -c 2 -i 26 -a 2 -x {1.0 3.1 26 ------- null}
h -t 1.10834 -s 2 -d 3 -p cbr -e 210 -c 2 -i 26 -a 2 -x {1.0 3.1 -1 ------- null}
+ -t 1.10875 -s 1 -d 2 -p cbr -e 210 -c 2 -i 29 -a 2 -x {1.0 3.1 29 ------- null}
- -t 1.10875 -s 1 -d 2 -p cbr -e 210 -c 2 -i 29 -a 2 -x {1.0 3.1 29 ------- null}
h -t 1.10875 -s 1 -d 2 -p cbr -e 210 -c 2 -i 29 -a 2 -x {1.0 3.1 -1 ------- null}
r -t 1.110262 -s 2 -d 3 -p cbr -e 210 -c 2 -i 21 -a 2 -x {1.0 3.1 21 ------- null}
r -t 1.11209 -s 1 -d 2 -p cbr -e 210 -c 2 -i 27 -a 2 -x {1.0 3.1 27 ------- null}
+ -t 1.11209 -s 2 -d 3 -p cbr -e 210 -c 2 -i 27 -a 2 -x {1.0 3.1 27 ------- null}
- -t 1.11209 -s 2 -d 3 -p cbr -e 210 -c 2 -i 27 -a 2 -x {1.0 3.1 27 ------- null}
h -t 1.11209 -s 2 -d 3 -p cbr -e 210 -c 2 -i 27 -a 2 -x {1.0 3.1 -1 ------- null}
+ -t 1.1125 -s 1 -d 2 -p cbr -e 210 -c 2 -i 30 -a 2 -x {1.0 3.1 30 ------- null}
- -t 1.1125 -s 1 -d 2 -p cbr -e 210 -c 2 -i 30 -a 2 -x {1.0 3.1 30 ------- null}
h -t 1.1125 -s 1 -d 2 -p cbr -e 210 -c 2 -i 30 -a 2 -x {1.0 3.1 -1 ------- null}
r -t 1.114012 -s 2 -d 3 -p cbr -e 210 -c 2 -i 22 -a 2 -x {1.0 3.1 22 ------- null}
r -t 1.11584 -s 1 -d 2 -p cbr -e 210 -c 2 -i 28 -a 2 -x {1.0 3.1 28 ------- null}
+ -t 1.11584 -s 2 -d 3 -p cbr -e 210 -c 2 -i 28 -a 2 -x {1.0 3.1 28 ------- null}
- -t 1.11584 -s 2 -d 3 -p cbr -e 210 -c 2 -i 28 -a 2 -x {1.0 3.1 28 ------- null}
h -t 1.11584 -s 2 -d 3 -p cbr -e 210 -c 2 -i 28 -a 2 -x {1.0 3.1 -1 ------- null}
+ -t 1.11625 -s 1 -d 2 -p cbr -e 210 -c 2 -i 31 -a 2 -x {1.0 3.1 31 ------- null}
- -t 1.11625 -s 1 -d 2 -p cbr -e 210 -c 2 -i 31 -a 2 -x {1.0 3.1 31 ------- null}
h -t 1.11625 -s 1 -d 2 -p cbr -e 210 -c 2 -i 31 -a 2 -x {1.0 3.1 -1 ------- null}
r -t 1.117762 -s 2 -d 3 -p cbr -e 210 -c 2 -i 23 -a 2 -x {1.0 3.1 23 ------- null}
r -t 1.11959 -s 1 -d 2 -p cbr -e 210 -c 2 -i 29 -a 2 -x {1.0 3.1 29 ------- null}
+ -t 1.11959 -s 2 -d 3 -p cbr -e 210 -c 2 -i 29 -a 2 -x {1.0 3.1 29 ------- null}
- -t 1.11959 -s 2 -d 3 -p cbr -e 210 -c 2 -i 29 -a 2 -x {1.0 3.1 29 ------- null}
h -t 1.11959 -s 2 -d 3 -p cbr -e 210 -c 2 -i 29 -a 2 -x {1.0 3.1 -1 ------- null}
+ -t 1.12 -s 1 -d 2 -p cbr -e 210 -c 2 -i 32 -a 2 -x {1.0 3.1 32 ------- null}
- -t 1.12 -s 1 -d 2 -p cbr -e 210 -c 2 -i 32 -a 2 -x {1.0 3.1 32 ------- null}
h -t 1.12 -s 1 -d 2 -p cbr -e 210 -c 2 -i 32 -a 2 -x {1.0 3.1 -1 ------- null}
r -t 1.121512 -s 2 -d 3 -p cbr -e 210 -c 2 -i 24 -a 2 -x {1.0 3.1 24 ------- null}
r -t 1.12334 -s 1 -d 2 -p cbr -e 210 -c 2 -i 30 -a 2 -x {1.0 3.1 30 ------- null}
+ -t 1.12334 -s 2 -d 3 -p cbr -e 210 -c 2 -i 30 -a 2 -x {1.0 3.1 30 ------- null}
- -t 1.12334 -s 2 -d 3 -p cbr -e 210 -c 2 -i 30 -a 2 -x {1.0 3.1 30 ------- null}
h -t 1.12334 -s 2 -d 3 -p cbr -e 210 -c 2 -i 30 -a 2 -x {1.0 3.1 -1 ------- null}
+ -t 1.12375 -s 1 -d 2 -p cbr -e 210 -c 2 -i 33 -a 2 -x {1.0 3.1 33 ------- null}
- -t 1.12375 -s 1 -d 2 -p cbr -e 210 -c 2 -i 33 -a 2 -x {1.0 3.1 33 ------- null}
h -t 1.12375 -s 1 -d 2 -p cbr -e 210 -c 2 -i 33 -a 2 -x {1.0 3.1 -1 ------- null}
r -t 1.125262 -s 2 -d 3 -p cbr -e 210 -c 2 -i 25 -a 2 -x {1.0 3.1 25 ------- null}
r -t 1.12709 -s 1 -d 2 -p cbr -e 210 -c 2 -i 31 -a 2 -x {1.0 3.1 31 ------- null}
+ -t 1.12709 -s 2 -d 3 -p cbr -e 210 -c 2 -i 31 -a 2 -x {1.0 3.1 31 ------- null}
- -t 1.12709 -s 2 -d 3 -p cbr -e 210 -c 2 -i 31 -a 2 -x {1.0 3.1 31 ------- null}
h -t 1.12709 -s 2 -d 3 -p cbr -e 210 -c 2 -i 31 -a 2 -x {1.0 3.1 -1 ------- null}
+ -t 1.1275 -s 1 -d 2 -p cbr -e 210 -c 2 -i 34 -a 2 -x {1.0 3.1 34 ------- null}
- -t 1.1275 -s 1 -d 2 -p cbr -e 210 -c 2 -i 34 -a 2 -x {1.0 3.1 34 ------- null}
h -t 1.1275 -s 1 -d 2 -p cbr -e 210 -c 2 -i 34 -a 2 -x {1.0 3.1 -1 ------- null}
r -t 1.129012 -s 2 -d 3 -p cbr -e 210 -c 2 -i 26 -a 2 -x {1.0 3.1 26 ------- null}
r -t 1.13084 -s 1 -d 2 -p cbr -e 210 -c 2 -i 32 -a 2 -x {1.0 3.1 32 ------- null}
+ -t 1.13084 -s 2 -d 3 -p cbr -e 210 -c 2 -i 32 -a 2 -x {1.0 3.1 32 ------- null}
- -t 1.13084 -s 2 -d 3 -p cbr -e 210 -c 2 -i 32 -a 2 -x {1.0 3.1 32 ------- null}
h -t 1.13084 -s 2 -d 3 -p cbr -e 210 -c 2 -i 32 -a 2 -x {1.0 3.1 -1 ------- null}
+ -t 1.13125 -s 1 -d 2 -p cbr -e 210 -c 2 -i 35 -a 2 -x {1.0 3.1 35 ------- null}
- -t 1.13125 -s 1 -d 2 -p cbr -e 210 -c 2 -i 35 -a 2 -x {1.0 3.1 35 ------- null}
h -t 1.13125 -s 1 -d 2 -p cbr -e 210 -c 2 -i 35 -a 2 -x {1.0 3.1 -1 ------- null}
r -t 1.132762 -s 2 -d 3 -p cbr -e 210 -c 2 -i 27 -a 2 -x {1.0 3.1 27 ------- null}
r -t 1.13459 -s 1 -d 2 -p cbr -e 210 -c 2 -i 33 -a 2 -x {1.0 3.1 33 ------- null}
+ -t 1.13459 -s 2 -d 3 -p cbr -e 210 -c 2 -i 33 -a 2 -x {1.0 3.1 33 ------- null}
- -t 1.13459 -s 2 -d 3 -p cbr -e 210 -c 2 -i 33 -a 2 -x {1.0 3.1 33 ------- null}
h -t 1.13459 -s 2 -d 3 -p cbr -e 210 -c 2 -i 33 -a 2 -x {1.0 3.1 -1 ------- null}
+ -t 1.135 -s 1 -d 2 -p cbr -e 210 -c 2 -i 36 -a 2 -x {1.0 3.1 36 ------- null}
- -t 1.135 -s 1 -d 2 -p cbr -e 210 -c 2 -i 36 -a 2 -x {1.0 3.1 36 ------- null}
h -t 1.135 -s 1 -d 2 -p cbr -e 210 -c 2 -i 36 -a 2 -x {1.0 3.1 -1 ------- null}
r -t 1.136512 -s 2 -d 3 -p cbr -e 210 -c 2 -i 28 -a 2 -x {1.0 3.1 28 ------- null}
r -t 1.13834 -s 1 -d 2 -p cbr -e 210 -c 2 -i 34 -a 2 -x {1.0 3.1 34 ------- null}
+ -t 1.13834 -s 2 -d 3 -p cbr -e 210 -c 2 -i 34 -a 2 -x {1.0 3.1 34 ------- null}
- -t 1.13834 -s 2 -d 3 -p cbr -e 210 -c 2 -i 34 -a 2 -x {1.0 3.1 34 ------- null}
h -t 1.13834 -s 2 -d 3 -p cbr -e 210 -c 2 -i 34 -a 2 -x {1.0 3.1 -1 ------- null}
+ -t 1.13875 -s 1 -d 2 -p cbr -e 210 -c 2 -i 37 -a 2 -x {1.0 3.1 37 ------- null}
- -t 1.13875 -s 1 -d 2 -p cbr -e 210 -c 2 -i 37 -a 2 -x {1.0 3.1 37 ------- null}
h -t 1.13875 -s 1 -d 2 -p cbr -e 210 -c 2 -i 37 -a 2 -x {1.0 3.1 -1 ------- null}
r -t 1.140262 -s 2 -d 3 -p cbr -e 210 -c 2 -i 29 -a 2 -x {1.0 3.1 29 ------- null}
r -t 1.14209 -s 1 -d 2 -p cbr -e 210 -c 2 -i 35 -a 2 -x {1.0 3.1 35 ------- null}
+ -t 1.14209 -s 2 -d 3 -p cbr -e 210 -c 2 -i 35 -a 2 -x {1.0 3.1 35 ------- null}
- -t 1.14209 -s 2 -d 3 -p cbr -e 210 -c 2 -i 35 -a 2 -x {1.0 3.1 35 ------- null}
h -t 1.14209 -s 2 -d 3 -p cbr -e 210 -c 2 -i 35 -a 2 -x {1.0 3.1 -1 ------- null}
+ -t 1.1425 -s 1 -d 2 -p cbr -e 210 -c 2 -i 38 -a 2 -x {1.0 3.1 38 ------- null}
- -t 1.1425 -s 1 -d 2 -p cbr -e 210 -c 2 -i 38 -a 2 -x {1.0 3.1 38 ------- null}
h -t 1.1425 -s 1 -d 2 -p cbr -e 210 -c 2 -i 38 -a 2 -x {1.0 3.1 -1 ------- null}
r -t 1.144012 -s 2 -d 3 -p cbr -e 210 -c 2 -i 30 -a 2 -x {1.0 3.1 30 ------- null}
r -t 1.14584 -s 1 -d 2 -p cbr -e 210 -c 2 -i 36 -a 2 -x {1.0 3.1 36 ------- null}
+ -t 1.14584 -s 2 -d 3 -p cbr -e 210 -c 2 -i 36 -a 2 -x {1.0 3.1 36 ------- null}
- -t 1.14584 -s 2 -d 3 -p cbr -e 210 -c 2 -i 36 -a 2 -x {1.0 3.1 36 ------- null}
h -t 1.14584 -s 2 -d 3 -p cbr -e 210 -c 2 -i 36 -a 2 -x {1.0 3.1 -1 ------- null}
+ -t 1.14625 -s 1 -d 2 -p cbr -e 210 -c 2 -i 39 -a 2 -x {1.0 3.1 39 ------- null}
- -t 1.14625 -s 1 -d 2 -p cbr -e 210 -c 2 -i 39 -a 2 -x {1.0 3.1 39 ------- null}
h -t 1.14625 -s 1 -d 2 -p cbr -e 210 -c 2 -i 39 -a 2 -x {1.0 3.1 -1 ------- null}
r -t 1.147762 -s 2 -d 3 -p cbr -e 210 -c 2 -i 31 -a 2 -x {1.0 3.1 31 ------- null}
r -t 1.14959 -s 1 -d 2 -p cbr -e 210 -c 2 -i 37 -a 2 -x {1.0 3.1 37 ------- null}
+ -t 1.14959 -s 2 -d 3 -p cbr -e 210 -c 2 -i 37 -a 2 -x {1.0 3.1 37 ------- null}
- -t 1.14959 -s 2 -d 3 -p cbr -e 210 -c 2 -i 37 -a 2 -x {1.0 3.1 37 ------- null}
h -t 1.14959 -s 2 -d 3 -p cbr -e 210 -c 2 -i 37 -a 2 -x {1.0 3.1 -1 ------- null}
+ -t 1.15 -s 1 -d 2 -p cbr -e 210 -c 2 -i 40 -a 2 -x {1.0 3.1 40 ------- null}
- -t 1.15 -s 1 -d 2 -p cbr -e 210 -c 2 -i 40 -a 2 -x {1.0 3.1 40 ------- null}
h -t 1.15 -s 1 -d 2 -p cbr -e 210 -c 2 -i 40 -a 2 -x {1.0 3.1 -1 ------- null}
r -t 1.151512 -s 2 -d 3 -p cbr -e 210 -c 2 -i 32 -a 2 -x {1.0 3.1 32 ------- null}
r -t 1.15334 -s 1 -d 2 -p cbr -e 210 -c 2 -i 38 -a 2 -x {1.0 3.1 38 ------- null}
+ -t 1.15334 -s 2 -d 3 -p cbr -e 210 -c 2 -i 38 -a 2 -x {1.0 3.1 38 ------- null}
- -t 1.15334 -s 2 -d 3 -p cbr -e 210 -c 2 -i 38 -a 2 -x {1.0 3.1 38 ------- null}
h -t 1.15334 -s 2 -d 3 -p cbr -e 210 -c 2 -i 38 -a 2 -x {1.0 3.1 -1 ------- null}
+ -t 1.15375 -s 1 -d 2 -p cbr -e 210 -c 2 -i 41 -a 2 -x {1.0 3.1 41 ------- null}
- -t 1.15375 -s 1 -d 2 -p cbr -e 210 -c 2 -i 41 -a 2 -x {1.0 3.1 41 ------- null}
h -t 1.15375 -s 1 -d 2 -p cbr -e 210 -c 2 -i 41 -a 2 -x {1.0 3.1 -1 ------- null}
r -t 1.155262 -s 2 -d 3 -p cbr -e 210 -c 2 -i 33 -a 2 -x {1.0 3.1 33 ------- null}
r -t 1.15709 -s 1 -d 2 -p cbr -e 210 -c 2 -i 39 -a 2 -x {1.0 3.1 39 ------- null}
+ -t 1.15709 -s 2 -d 3 -p cbr -e 210 -c 2 -i 39 -a 2 -x {1.0 3.1 39 ------- null}
- -t 1.15709 -s 2 -d 3 -p cbr -e 210 -c 2 -i 39 -a 2 -x {1.0 3.1 39 ------- null}
h -t 1.15709 -s 2 -d 3 -p cbr -e 210 -c 2 -i 39 -a 2 -x {1.0 3.1 -1 ------- null}
+ -t 1.1575 -s 1 -d 2 -p cbr -e 210 -c 2 -i 42 -a 2 -x {1.0 3.1 42 ------- null}
- -t 1.1575 -s 1 -d 2 -p cbr -e 210 -c 2 -i 42 -a 2 -x {1.0 3.1 42 ------- null}
h -t 1.1575 -s 1 -d 2 -p cbr -e 210 -c 2 -i 42 -a 2 -x {1.0 3.1 -1 ------- null}
r -t 1.159012 -s 2 -d 3 -p cbr -e 210 -c 2 -i 34 -a 2 -x {1.0 3.1 34 ------- null}
r -t 1.16084 -s 1 -d 2 -p cbr -e 210 -c 2 -i 40 -a 2 -x {1.0 3.1 40 ------- null}
+ -t 1.16084 -s 2 -d 3 -p cbr -e 210 -c 2 -i 40 -a 2 -x {1.0 3.1 40 ------- null}
- -t 1.16084 -s 2 -d 3 -p cbr -e 210 -c 2 -i 40 -a 2 -x {1.0 3.1 40 ------- null}
h -t 1.16084 -s 2 -d 3 -p cbr -e 210 -c 2 -i 40 -a 2 -x {1.0 3.1 -1 ------- null}
+ -t 1.16125 -s 1 -d 2 -p cbr -e 210 -c 2 -i 43 -a 2 -x {1.0 3.1 43 ------- null}
- -t 1.16125 -s 1 -d 2 -p cbr -e 210 -c 2 -i 43 -a 2 -x {1.0 3.1 43 ------- null}
h -t 1.16125 -s 1 -d 2 -p cbr -e 210 -c 2 -i 43 -a 2 -x {1.0 3.1 -1 ------- null}
r -t 1.162762 -s 2 -d 3 -p cbr -e 210 -c 2 -i 35 -a 2 -x {1.0 3.1 35 ------- null}
r -t 1.16459 -s 1 -d 2 -p cbr -e 210 -c 2 -i 41 -a 2 -x {1.0 3.1 41 ------- null}
+ -t 1.16459 -s 2 -d 3 -p cbr -e 210 -c 2 -i 41 -a 2 -x {1.0 3.1 41 ------- null}
- -t 1.16459 -s 2 -d 3 -p cbr -e 210 -c 2 -i 41 -a 2 -x {1.0 3.1 41 ------- null}
h -t 1.16459 -s 2 -d 3 -p cbr -e 210 -c 2 -i 41 -a 2 -x {1.0 3.1 -1 ------- null}
+ -t 1.165 -s 1 -d 2 -p cbr -e 210 -c 2 -i 44 -a 2 -x {1.0 3.1 44 ------- null}
- -t 1.165 -s 1 -d 2 -p cbr -e 210 -c 2 -i 44 -a 2 -x {1.0 3.1 44 ------- null}
h -t 1.165 -s 1 -d 2 -p cbr -e 210 -c 2 -i 44 -a 2 -x {1.0 3.1 -1 ------- null}
r -t 1.166512 -s 2 -d 3 -p cbr -e 210 -c 2 -i 36 -a 2 -x {1.0 3.1 36 ------- null}
r -t 1.16834 -s 1 -d 2 -p cbr -e 210 -c 2 -i 42 -a 2 -x {1.0 3.1 42 ------- null}
+ -t 1.16834 -s 2 -d 3 -p cbr -e 210 -c 2 -i 42 -a 2 -x {1.0 3.1 42 ------- null}
- -t 1.16834 -s 2 -d 3 -p cbr -e 210 -c 2 -i 42 -a 2 -x {1.0 3.1 42 ------- null}
h -t 1.16834 -s 2 -d 3 -p cbr -e 210 -c 2 -i 42 -a 2 -x {1.0 3.1 -1 ------- null}
+ -t 1.16875 -s 1 -d 2 -p cbr -e 210 -c 2 -i 45 -a 2 -x {1.0 3.1 45 ------- null}
- -t 1.16875 -s 1 -d 2 -p cbr -e 210 -c 2 -i 45 -a 2 -x {1.0 3.1 45 ------- null}
h -t 1.16875 -s 1 -d 2 -p cbr -e 210 -c 2 -i 45 -a 2 -x {1.0 3.1 -1 ------- null}
r -t 1.170262 -s 2 -d 3 -p cbr -e 210 -c 2 -i 37 -a 2 -x {1.0 3.1 37 ------- null}
r -t 1.17209 -s 1 -d 2 -p cbr -e 210 -c 2 -i 43 -a 2 -x {1.0 3.1 43 ------- null}
+ -t 1.17209 -s 2 -d 3 -p cbr -e 210 -c 2 -i 43 -a 2 -x {1.0 3.1 43 ------- null}
- -t 1.17209 -s 2 -d 3 -p cbr -e 210 -c 2 -i 43 -a 2 -x {1.0 3.1 43 ------- null}
h -t 1.17209 -s 2 -d 3 -p cbr -e 210 -c 2 -i 43 -a 2 -x {1.0 3.1 -1 ------- null}
+ -t 1.1725 -s 1 -d 2 -p cbr -e 210 -c 2 -i 46 -a 2 -x {1.0 3.1 46 ------- null}
- -t 1.1725 -s 1 -d 2 -p cbr -e 210 -c 2 -i 46 -a 2 -x {1.0 3.1 46 ------- null}
h -t 1.1725 -s 1 -d 2 -p cbr -e 210 -c 2 -i 46 -a 2 -x {1.0 3.1 -1 ------- null}
r -t 1.174012 -s 2 -d 3 -p cbr -e 210 -c 2 -i 38 -a 2 -x {1.0 3.1 38 ------- null}
r -t 1.17584 -s 1 -d 2 -p cbr -e 210 -c 2 -i 44 -a 2 -x {1.0 3.1 44 ------- null}
+ -t 1.17584 -s 2 -d 3 -p cbr -e 210 -c 2 -i 44 -a 2 -x {1.0 3.1 44 ------- null}
- -t 1.17584 -s 2 -d 3 -p cbr -e 210 -c 2 -i 44 -a 2 -x {1.0 3.1 44 ------- null}
h -t 1.17584 -s 2 -d 3 -p cbr -e 210 -c 2 -i 44 -a 2 -x {1.0 3.1 -1 ------- null}
+ -t 1.17625 -s 1 -d 2 -p cbr -e 210 -c 2 -i 47 -a 2 -x {1.0 3.1 47 ------- null}
- -t 1.17625 -s 1 -d 2 -p cbr -e 210 -c 2 -i 47 -a 2 -x {1.0 3.1 47 ------- null}