+ 1 1 2 cbr 210 ------- 2 1.0 3.1 0 0
- 1 1 2 cbr 210 ------- 2 1.0 3.1 0 0
+ 1.00375 1 2 cbr 210 ------- 2 1.0 3.1 1 1
- 1.00375 1 2 cbr 210 ------- 2 1.0 3.1 1 1
+ 1.0075 1 2 cbr 210 ------- 2 1.0 3.1 2 2
- 1.0075 1 2 cbr 210 ------- 2 1.0 3.1 2 2
r 1.01084 1 2 cbr 210 ------- 2 1.0 3.1 0 0
+ 1.01084 2 3 cbr 210 ------- 2 1.0 3.1 0 0
- 1.01084 2 3 cbr 210 ------- 2 1.0 3.1 0 0
+ 1.01125 1 2 cbr 210 ------- 2 1.0 3.1 3 3
- 1.01125 1 2 cbr 210 ------- 2 1.0 3.1 3 3
r 1.01459 1 2 cbr 210 ------- 2 1.0 3.1 1 1
+ 1.01459 2 3 cbr 210 ------- 2 1.0 3.1 1 1
- 1.01459 2 3 cbr 210 ------- 2 1.0 3.1 1 1
+ 1.015 1 2 cbr 210 ------- 2 1.0 3.1 4 4
- 1.015 1 2 cbr 210 ------- 2 1.0 3.1 4 4
r 1.01834 1 2 cbr 210 ------- 2 1.0 3.1 2 2
+ 1.01834 2 3 cbr 210 ------- 2 1.0 3.1 2 2
- 1.01834 2 3 cbr 210 ------- 2 1.0 3.1 2 2
+ 1.01875 1 2 cbr 210 ------- 2 1.0 3.1 5 5
- 1.01875 1 2 cbr 210 ------- 2 1.0 3.1 5 5
r 1.02209 1 2 cbr 210 ------- 2 1.0 3.1 3 3
+ 1.02209 2 3 cbr 210 ------- 2 1.0 3.1 3 3
- 1.02209 2 3 cbr 210 ------- 2 1.0 3.1 3 3
+ 1.0225 1 2 cbr 210 ------- 2 1.0 3.1 6 6
- 1.0225 1 2 cbr 210 ------- 2 1.0 3.1 6 6
r 1.02584 1 2 cbr 210 ------- 2 1.0 3.1 4 4
+ 1.02584 2 3 cbr 210 ------- 2 1.0 3.1 4 4
- 1.02584 2 3 cbr 210 ------- 2 1.0 3.1 4 4
+ 1.02625 1 2 cbr 210 ------- 2 1.0 3.1 7 7
- 1.02625 1 2 cbr 210 ------- 2 1.0 3.1 7 7
r 1.02959 1 2 cbr 210 ------- 2 1.0 3.1 5 5
+ 1.02959 2 3 cbr 210 ------- 2 1.0 3.1 5 5
- 1.02959 2 3 cbr 210 ------- 2 1.0 3.1 5 5
+ 1.03 1 2 cbr 210 ------- 2 1.0 3.1 8 8
- 1.03 1 2 cbr 210 ------- 2 1.0 3.1 8 8
r 1.031512 2 3 cbr 210 ------- 2 1.0 3.1 0 0
r 1.03334 1 2 cbr 210 ------- 2 1.0 3.1 6 6
+ 1.03334 2 3 cbr 210 ------- 2 1.0 3.1 6 6
- 1.03334 2 3 cbr 210 ------- 2 1.0 3.1 6 6
+ 1.03375 1 2 cbr 210 ------- 2 1.0 3.1 9 9
- 1.03375 1 2 cbr 210 ------- 2 1.0 3.1 9 9
r 1.035262 2 3 cbr 210 ------- 2 1.0 3.1 1 1
r 1.03709 1 2 cbr 210 ------- 2 1.0 3.1 7 7
+ 1.03709 2 3 cbr 210 ------- 2 1.0 3.1 7 7
- 1.03709 2 3 cbr 210 ------- 2 1.0 3.1 7 7
+ 1.0375 1 2 cbr 210 ------- 2 1.0 3.1 10 10
- 1.0375 1 2 cbr 210 ------- 2 1.0 3.1 10 10
r 1.039012 2 3 cbr 210 ------- 2 1.0 3.1 2 2
r 1.04084 1 2 cbr 210 ------- 2 1.0 3.1 8 8
+ 1.04084 2 3 cbr 210 ------- 2 1.0 3.1 8 8
- 1.04084 2 3 cbr 210 ------- 2 1.0 3.1 8 8
+ 1.04125 1 2 cbr 210 ------- 2 1.0 3.1 11 11
- 1.04125 1 2 cbr 210 ------- 2 1.0 3.1 11 11
r 1.042762 2 3 cbr 210 ------- 2 1.0 3.1 3 3
r 1.04459 1 2 cbr 210 ------- 2 1.0 3.1 9 9
+ 1.04459 2 3 cbr 210 ------- 2 1.0 3.1 9 9
- 1.04459 2 3 cbr 210 ------- 2 1.0 3.1 9 9
+ 1.045 1 2 cbr 210 ------- 2 1.0 3.1 12 12
- 1.045 1 2 cbr 210 ------- 2 1.0 3.1 12 12
r 1.046512 2 3 cbr 210 ------- 2 1.0 3.1 4 4
r 1.04834 1 2 cbr 210 ------- 2 1.0 3.1 10 10
+ 1.04834 2 3 cbr 210 ------- 2 1.0 3.1 10 10
- 1.04834 2 3 cbr 210 ------- 2 1.0 3.1 10 10
+ 1.04875 1 2 cbr 210 ------- 2 1.0 3.1 13 13
- 1.04875 1 2 cbr 210 ------- 2 1.0 3.1 13 13
r 1.050262 2 3 cbr 210 ------- 2 1.0 3.1 5 5
r 1.05209 1 2 cbr 210 ------- 2 1.0 3.1 11 11
+ 1.05209 2 3 cbr 210 ------- 2 1.0 3.1 11 11
- 1.05209 2 3 cbr 210 ------- 2 1.0 3.1 11 11
+ 1.0525 1 2 cbr 210 ------- 2 1.0 3.1 14 14
- 1.0525 1 2 cbr 210 ------- 2 1.0 3.1 14 14
r 1.054012 2 3 cbr 210 ------- 2 1.0 3.1 6 6
r 1.05584 1 2 cbr 210 ------- 2 1.0 3.1 12 12
+ 1.05584 2 3 cbr 210 ------- 2 1.0 3.1 12 12
- 1.05584 2 3 cbr 210 ------- 2 1.0 3.1 12 12
+ 1.05625 1 2 cbr 210 ------- 2 1.0 3.1 15 15
- 1.05625 1 2 cbr 210 ------- 2 1.0 3.1 15 15
r 1.057762 2 3 cbr 210 ------- 2 1.0 3.1 7 7
r 1.05959 1 2 cbr 210 ------- 2 1.0 3.1 13 13
+ 1.05959 2 3 cbr 210 ------- 2 1.0 3.1 13 13
- 1.05959 2 3 cbr 210 ------- 2 1.0 3.1 13 13
+ 1.06 1 2 cbr 210 ------- 2 1.0 3.1 16 16
- 1.06 1 2 cbr 210 ------- 2 1.0 3.1 16 16
r 1.061512 2 3 cbr 210 ------- 2 1.0 3.1 8 8
r 1.06334 1 2 cbr 210 ------- 2 1.0 3.1 14 14
+ 1.06334 2 3 cbr 210 ------- 2 1.0 3.1 14 14
- 1.06334 2 3 cbr 210 ------- 2 1.0 3.1 14 14
+ 1.06375 1 2 cbr 210 ------- 2 1.0 3.1 17 17
- 1.06375 1 2 cbr 210 ------- 2 1.0 3.1 17 17
r 1.065262 2 3 cbr 210 ------- 2 1.0 3.1 9 9
r 1.06709 1 2 cbr 210 ------- 2 1.0 3.1 15 15
+ 1.06709 2 3 cbr 210 ------- 2 1.0 3.1 15 15
- 1.06709 2 3 cbr 210 ------- 2 1.0 3.1 15 15
+ 1.0675 1 2 cbr 210 ------- 2 1.0 3.1 18 18
- 1.0675 1 2 cbr 210 ------- 2 1.0 3.1 18 18
r 1.069012 2 3 cbr 210 ------- 2 1.0 3.1 10 10
r 1.07084 1 2 cbr 210 ------- 2 1.0 3.1 16 16
+ 1.07084 2 3 cbr 210 ------- 2 1.0 3.1 16 16
- 1.07084 2 3 cbr 210 ------- 2 1.0 3.1 16 16
+ 1.07125 1 2 cbr 210 ------- 2 1.0 3.1 19 19
- 1.07125 1 2 cbr 210 ------- 2 1.0 3.1 19 19
r 1.072762 2 3 cbr 210 ------- 2 1.0 3.1 11 11
r 1.07459 1 2 cbr 210 ------- 2 1.0 3.1 17 17
+ 1.07459 2 3 cbr 210 ------- 2 1.0 3.1 17 17
- 1.07459 2 3 cbr 210 ------- 2 1.0 3.1 17 17
+ 1.075 1 2 cbr 210 ------- 2 1.0 3.1 20 20
- 1.075 1 2 cbr 210 ------- 2 1.0 3.1 20 20
r 1.076512 2 3 cbr 210 ------- 2 1.0 3.1 12 12
r 1.07834 1 2 cbr 210 ------- 2 1.0 3.1 18 18
+ 1.07834 2 3 cbr 210 ------- 2 1.0 3.1 18 18
- 1.07834 2 3 cbr 210 ------- 2 1.0 3.1 18 18
+ 1.07875 1 2 cbr 210 ------- 2 1.0 3.1 21 21
- 1.07875 1 2 cbr 210 ------- 2 1.0 3.1 21 21
r 1.080262 2 3 cbr 210 ------- 2 1.0 3.1 13 13
r 1.08209 1 2 cbr 210 ------- 2 1.0 3.1 19 19
+ 1.08209 2 3 cbr 210 ------- 2 1.0 3.1 19 19
- 1.08209 2 3 cbr 210 ------- 2 1.0 3.1 19 19
+ 1.0825 1 2 cbr 210 ------- 2 1.0 3.1 22 22
- 1.0825 1 2 cbr 210 ------- 2 1.0 3.1 22 22
r 1.084012 2 3 cbr 210 ------- 2 1.0 3.1 14 14
r 1.08584 1 2 cbr 210 ------- 2 1.0 3.1 20 20
+ 1.08584 2 3 cbr 210 ------- 2 1.0 3.1 20 20
- 1.08584 2 3 cbr 210 ------- 2 1.0 3.1 20 20
+ 1.08625 1 2 cbr 210 ------- 2 1.0 3.1 23 23
- 1.08625 1 2 cbr 210 ------- 2 1.0 3.1 23 23
r 1.087762 2 3 cbr 210 ------- 2 1.0 3.1 15 15
r 1.08959 1 2 cbr 210 ------- 2 1.0 3.1 21 21
+ 1.08959 2 3 cbr 210 ------- 2 1.0 3.1 21 21
- 1.08959 2 3 cbr 210 ------- 2 1.0 3.1 21 21
+ 1.09 1 2 cbr 210 ------- 2 1.0 3.1 24 24
- 1.09 1 2 cbr 210 ------- 2 1.0 3.1 24 24
r 1.091512 2 3 cbr 210 ------- 2 1.0 3.1 16 16
r 1.09334 1 2 cbr 210 ------- 2 1.0 3.1 22 22
+ 1.09334 2 3 cbr 210 ------- 2 1.0 3.1 22 22
- 1.09334 2 3 cbr 210 ------- 2 1.0 3.1 22 22
+ 1.09375 1 2 cbr 210 ------- 2 1.0 3.1 25 25
- 1.09375 1 2 cbr 210 ------- 2 1.0 3.1 25 25
r 1.095262 2 3 cbr 210 ------- 2 1.0 3.1 17 17
r 1.09709 1 2 cbr 210 ------- 2 1.0 3.1 23 23
+ 1.09709 2 3 cbr 210 ------- 2 1.0 3.1 23 23
- 1.09709 2 3 cbr 210 ------- 2 1.0 3.1 23 23
+ 1.0975 1 2 cbr 210 ------- 2 1.0 3.1 26 26
- 1.0975 1 2 cbr 210 ------- 2 1.0 3.1 26 26
r 1.099012 2 3 cbr 210 ------- 2 1.0 3.1 18 18
r 1.10084 1 2 cbr 210 ------- 2 1.0 3.1 24 24
+ 1.10084 2 3 cbr 210 ------- 2 1.0 3.1 24 24
- 1.10084 2 3 cbr 210 ------- 2 1.0 3.1 24 24
+ 1.10125 1 2 cbr 210 ------- 2 1.0 3.1 27 27
- 1.10125 1 2 cbr 210 ------- 2 1.0 3.1 27 27
r 1.102762 2 3 cbr 210 ------- 2 1.0 3.1 19 19
r 1.10459 1 2 cbr 210 ------- 2 1.0 3.1 25 25
+ 1.10459 2 3 cbr 210 ------- 2 1.0 3.1 25 25
- 1.10459 2 3 cbr 210 ------- 2 1.0 3.1 25 25
+ 1.105 1 2 cbr 210 ------- 2 1.0 3.1 28 28
- 1.105 1 2 cbr 210 ------- 2 1.0 3.1 28 28
r 1.106512 2 3 cbr 210 ------- 2 1.0 3.1 20 20
r 1.10834 1 2 cbr 210 ------- 2 1.0 3.1 26 26
+ 1.10834 2 3 cbr 210 ------- 2 1.0 3.1 26 26
- 1.10834 2 3 cbr 210 ------- 2 1.0 3.1 26 26
+ 1.10875 1 2 cbr 210 ------- 2 1.0 3.1 29 29
- 1.10875 1 2 cbr 210 ------- 2 1.0 3.1 29 29
r 1.110262 2 3 cbr 210 ------- 2 1.0 3.1 21 21
r 1.11209 1 2 cbr 210 ------- 2 1.0 3.1 27 27
+ 1.11209 2 3 cbr 210 ------- 2 1.0 3.1 27 27
- 1.11209 2 3 cbr 210 ------- 2 1.0 3.1 27 27
+ 1.1125 1 2 cbr 210 ------- 2 1.0 3.1 30 30
- 1.1125 1 2 cbr 210 ------- 2 1.0 3.1 30 30
r 1.114012 2 3 cbr 210 ------- 2 1.0 3.1 22 22
r 1.11584 1 2 cbr 210 ------- 2 1.0 3.1 28 28
+ 1.11584 2 3 cbr 210 ------- 2 1.0 3.1 28 28
- 1.11584 2 3 cbr 210 ------- 2 1.0 3.1 28 28
+ 1.11625 1 2 cbr 210 ------- 2 1.0 3.1 31 31
- 1.11625 1 2 cbr 210 ------- 2 1.0 3.1 31 31
r 1.117762 2 3 cbr 210 ------- 2 1.0 3.1 23 23
r 1.11959 1 2 cbr 210 ------- 2 1.0 3.1 29 29
+ 1.11959 2 3 cbr 210 ------- 2 1.0 3.1 29 29
- 1.11959 2 3 cbr 210 ------- 2 1.0 3.1 29 29
+ 1.12 1 2 cbr 210 ------- 2 1.0 3.1 32 32
- 1.12 1 2 cbr 210 ------- 2 1.0 3.1 32 32
r 1.121512 2 3 cbr 210 ------- 2 1.0 3.1 24 24
r 1.12334 1 2 cbr 210 ------- 2 1.0 3.1 30 30
+ 1.12334 2 3 cbr 210 ------- 2 1.0 3.1 30 30
- 1.12334 2 3 cbr 210 ------- 2 1.0 3.1 30 30
+ 1.12375 1 2 cbr 210 ------- 2 1.0 3.1 33 33
- 1.12375 1 2 cbr 210 ------- 2 1.0 3.1 33 33
r 1.125262 2 3 cbr 210 ------- 2 1.0 3.1 25 25
r 1.12709 1 2 cbr 210 ------- 2 1.0 3.1 31 31
+ 1.12709 2 3 cbr 210 ------- 2 1.0 3.1 31 31
- 1.12709 2 3 cbr 210 ------- 2 1.0 3.1 31 31
+ 1.1275 1 2 cbr 210 ------- 2 1.0 3.1 34 34
- 1.1275 1 2 cbr 210 ------- 2 1.0 3.1 34 34
r 1.129012 2 3 cbr 210 ------- 2 1.0 3.1 26 26
r 1.13084 1 2 cbr 210 ------- 2 1.0 3.1 32 32
+ 1.13084 2 3 cbr 210 ------- 2 1.0 3.1 32 32
- 1.13084 2 3 cbr 210 ------- 2 1.0 3.1 32 32
+ 1.13125 1 2 cbr 210 ------- 2 1.0 3.1 35 35
- 1.13125 1 2 cbr 210 ------- 2 1.0 3.1 35 35
r 1.132762 2 3 cbr 210 ------- 2 1.0 3.1 27 27
r 1.13459 1 2 cbr 210 ------- 2 1.0 3.1 33 33
+ 1.13459 2 3 cbr 210 ------- 2 1.0 3.1 33 33
- 1.13459 2 3 cbr 210 ------- 2 1.0 3.1 33 33
+ 1.135 1 2 cbr 210 ------- 2 1.0 3.1 36 36
- 1.135 1 2 cbr 210 ------- 2 1.0 3.1 36 36
r 1.136512 2 3 cbr 210 ------- 2 1.0 3.1 28 28
r 1.13834 1 2 cbr 210 ------- 2 1.0 3.1 34 34
+ 1.13834 2 3 cbr 210 ------- 2 1.0 3.1 34 34
- 1.13834 2 3 cbr 210 ------- 2 1.0 3.1 34 34
+ 1.13875 1 2 cbr 210 ------- 2 1.0 3.1 37 37
- 1.13875 1 2 cbr 210 ------- 2 1.0 3.1 37 37
r 1.140262 2 3 cbr 210 ------- 2 1.0 3.1 29 29
r 1.14209 1 2 cbr 210 ------- 2 1.0 3.1 35 35
+ 1.14209 2 3 cbr 210 ------- 2 1.0 3.1 35 35
- 1.14209 2 3 cbr 210 ------- 2 1.0 3.1 35 35
+ 1.1425 1 2 cbr 210 ------- 2 1.0 3.1 38 38
- 1.1425 1 2 cbr 210 ------- 2 1.0 3.1 38 38
r 1.144012 2 3 cbr 210 ------- 2 1.0 3.1 30 30
r 1.14584 1 2 cbr 210 ------- 2 1.0 3.1 36 36
+ 1.14584 2 3 cbr 210 ------- 2 1.0 3.1 36 36
- 1.14584 2 3 cbr 210 ------- 2 1.0 3.1 36 36
+ 1.14625 1 2 cbr 210 ------- 2 1.0 3.1 39 39
- 1.14625 1 2 cbr 210 ------- 2 1.0 3.1 39 39
r 1.147762 2 3 cbr 210 ------- 2 1.0 3.1 31 31
r 1.14959 1 2 cbr 210 ------- 2 1.0 3.1 37 37
+ 1.14959 2 3 cbr 210 ------- 2 1.0 3.1 37 37
- 1.14959 2 3 cbr 210 ------- 2 1.0 3.1 37 37
+ 1.15 1 2 cbr 210 ------- 2 1.0 3.1 40 40
- 1.15 1 2 cbr 210 ------- 2 1.0 3.1 40 40
r 1.151512 2 3 cbr 210 ------- 2 1.0 3.1 32 32
r 1.15334 1 2 cbr 210 ------- 2 1.0 3.1 38 38
+ 1.15334 2 3 cbr 210 ------- 2 1.0 3.1 38 38
- 1.15334 2 3 cbr 210 ------- 2 1.0 3.1 38 38
+ 1.15375 1 2 cbr 210 ------- 2 1.0 3.1 41 41
- 1.15375 1 2 cbr 210 ------- 2 1.0 3.1 41 41
r 1.155262 2 3 cbr 210 ------- 2 1.0 3.1 33 33
r 1.15709 1 2 cbr 210 ------- 2 1.0 3.1 39 39
+ 1.15709 2 3 cbr 210 ------- 2 1.0 3.1 39 39
- 1.15709 2 3 cbr 210 ------- 2 1.0 3.1 39 39
+ 1.1575 1 2 cbr 210 ------- 2 1.0 3.1 42 42
- 1.1575 1 2 cbr 210 ------- 2 1.0 3.1 42 42
r 1.159012 2 3 cbr 210 ------- 2 1.0 3.1 34 34
r 1.16084 1 2 cbr 210 ------- 2 1.0 3.1 40 40
+ 1.16084 2 3 cbr 210 ------- 2 1.0 3.1 40 40
- 1.16084 2 3 cbr 210 ------- 2 1.0 3.1 40 40
+ 1.16125 1 2 cbr 210 ------- 2 1.0 3.1 43 43
- 1.16125 1 2 cbr 210 ------- 2 1.0 3.1 43 43
r 1.162762 2 3 cbr 210 ------- 2 1.0 3.1 35 35
r 1.16459 1 2 cbr 210 ------- 2 1.0 3.1 41 41
+ 1.16459 2 3 cbr 210 ------- 2 1.0 3.1 41 41
- 1.16459 2 3 cbr 210 ------- 2 1.0 3.1 41 41
+ 1.165 1 2 cbr 210 ------- 2 1.0 3.1 44 44
- 1.165 1 2 cbr 210 ------- 2 1.0 3.1 44 44
r 1.166512 2 3 cbr 210 ------- 2 1.0 3.1 36 36
r 1.16834 1 2 cbr 210 ------- 2 1.0 3.1 42 42
+ 1.16834 2 3 cbr 210 ------- 2 1.0 3.1 42 42
- 1.16834 2 3 cbr 210 ------- 2 1.0 3.1 42 42
+ 1.16875 1 2 cbr 210 ------- 2 1.0 3.1 45 45
- 1.16875 1 2 cbr 210 ------- 2 1.0 3.1 45 45
r 1.170262 2 3 cbr 210 ------- 2 1.0 3.1 37 37
r 1.17209 1 2 cbr 210 ------- 2 1.0 3.1 43 43
+ 1.17209 2 3 cbr 210 ------- 2 1.0 3.1 43 43
- 1.17209 2 3 cbr 210 ------- 2 1.0 3.1 43 43
+ 1.1725 1 2 cbr 210 ------- 2 1.0 3.1 46 46
- 1.1725 1 2 cbr 210 ------- 2 1.0 3.1 46 46
r 1.174012 2 3 cbr 210 ------- 2 1.0 3.1 38 38
r 1.17584 1 2 cbr 210 ------- 2 1.0 3.1 44 44
+ 1.17584 2 3 cbr 210 ------- 2 1.0 3.1 44 44
- 1.17584 2 3 cbr 210 ------- 2 1.0 3.1 44 44
+ 1.17625 1 2 cbr 210 ------- 2 1.0 3.1 47 47
- 1.17625 1 2 cbr 210 ------- 2 1.0 3.1 47 47
r 1.177762 2 3 cbr 210 ------- 2 1.0 3.1 39 39
r 1.17959 1 2 cbr 210 ------- 2 1.0 3.1 45 45
+ 1.17959 2 3 cbr 210 ------- 2 1.0 3.1 45 45
- 1.17959 2 3 cbr 210 ------- 2 1.0 3.1 45 45
+ 1.18 1 2 cbr 210 ------- 2 1.0 3.1 48 48
- 1.18 1 2 cbr 210 ------- 2 1.0 3.1 48 48
r 1.181512 2 3 cbr 210 ------- 2 1.0 3.1 40 40
r 1.18334 1 2 cbr 210 ------- 2 1.0 3.1 46 46
+ 1.18334 2 3 cbr 210 ------- 2 1.0 3.1 46 46
- 1.18334 2 3 cbr 210 ------- 2 1.0 3.1 46 46
+ 1.18375 1 2 cbr 210 ------- 2 1.0 3.1 49 49
- 1.18375 1 2 cbr 210 ------- 2 1.0 3.1 49 49
r 1.185262 2 3 cbr 210 ------- 2 1.0 3.1 41 41
r 1.18709 1 2 cbr 210 ------- 2 1.0 3.1 47 47
+ 1.18709 2 3 cbr 210 ------- 2 1.0 3.1 47 47
- 1.18709 2 3 cbr 210 ------- 2 1.0 3.1 47 47
+ 1.1875 1 2 cbr 210 ------- 2 1.0 3.1 50 50
- 1.1875 1 2 cbr 210 ------- 2 1.0 3.1 50 50
r 1.189012 2 3 cbr 210 ------- 2 1.0 3.1 42 42
r 1.19084 1 2 cbr 210 ------- 2 1.0 3.1 48 48
+ 1.19084 2 3 cbr 210 ------- 2 1.0 3.1 48 48
- 1.19084 2 3 cbr 210 ------- 2 1.0 3.1 48 48
+ 1.19125 1 2 cbr 210 ------- 2 1.0 3.1 51 51
- 1.19125 1 2 cbr 210 ------- 2 1.0 3.1 51 51
r 1.192762 2 3 cbr 210 ------- 2 1.0 3.1 43 43
r 1.19459 1 2 cbr 210 ------- 2 1.0 3.1 49 49
+ 1.19459 2 3 cbr 210 ------- 2 1.0 3.1 49 49
- 1.19459 2 3 cbr 210 ------- 2 1.0 3.1 49 49
+ 1.195 1 2 cbr 210 ------- 2 1.0 3.1 52 52
- 1.195 1 2 cbr 210 ------- 2 1.0 3.1 52 52
r 1.196512 2 3 cbr 210 ------- 2 1.0 3.1 44 44
r 1.19834 1 2 cbr 210 ------- 2 1.0 3.1 50 50
+ 1.19834 2 3 cbr 210 ------- 2 1.0 3.1 50 50
- 1.19834 2 3 cbr 210 ------- 2 1.0 3.1 50 50
+ 1.19875 1 2 cbr 210 ------- 2 1.0 3.1 53 53
- 1.19875 1 2 cbr 210 ------- 2 1.0 3.1 53 53
r 1.200262 2 3 cbr 210 ------- 2 1.0 3.1 45 45
r 1.20209 1 2 cbr 210 ------- 2 1.0 3.1 51 51
+ 1.20209 2 3 cbr 210 ------- 2 1.0 3.1 51 51
- 1.20209 2 3 cbr 210 ------- 2 1.0 3.1 51 51
+ 1.2025 1 2 cbr 210 ------- 2 1.0 3.1 54 54
- 1.2025 1 2 cbr 210 ------- 2 1.0 3.1 54 54
r 1.204012 2 3 cbr 210 ------- 2 1.0 3.1 46 46
r 1.20584 1 2 cbr 210 ------- 2 1.0 3.1 52 52
+ 1.20584 2 3 cbr 210 ------- 2 1.0 3.1 52 52
- 1.20584 2 3 cbr 210 ------- 2 1.0 3.1 52 52
+ 1.20625 1 2 cbr 210 ------- 2 1.0 3.1 55 55
- 1.20625 1 2 cbr 210 ------- 2 1.0 3.1 55 55
r 1.207762 2 3 cbr 210 ------- 2 1.0 3.1 47 47
r 1.20959 1 2 cbr 210 ------- 2 1.0 3.1 53 53
+ 1.20959 2 3 cbr 210 ------- 2 1.0 3.1 53 53
- 1.20959 2 3 cbr 210 ------- 2 1.0 3.1 53 53
+ 1.21 1 2 cbr 210 ------- 2 1.0 3.1 56 56
- 1.21 1 2 cbr 210 ------- 2 1.0 3.1 56 56
r 1.211512 2 3 cbr 210 ------- 2 1.0 3.1 48 48
r 1.21334 1 2 cbr 210 ------- 2 1.0 3.1 54 54
+ 1.21334 2 3 cbr 210 ------- 2 1.0 3.1 54 54
- 1.21334 2 3 cbr 210 ------- 2 1.0 3.1 54 54
+ 1.21375 1 2 cbr 210 ------- 2 1.0 3.1 57 57
- 1.21375 1 2 cbr 210 ------- 2 1.0 3.1 57 57
r 1.215262 2 3 cbr 210 ------- 2 1.0 3.1 49 49
r 1.21709 1 2 cbr 210 ------- 2 1.0 3.1 55 55
+ 1.21709 2 3 cbr 210 ------- 2 1.0 3.1 55 55
- 1.21709 2 3 cbr 210 ------- 2 1.0 3.1 55 55
+ 1.2175 1 2 cbr 210 ------- 2 1.0 3.1 58 58
- 1.2175 1 2 cbr 210 ------- 2 1.0 3.1 58 58
r 1.219012 2 3 cbr 210 ------- 2 1.0 3.1 50 50
r 1.22084 1 2 cbr 210 ------- 2 1.0 3.1 56 56
+ 1.22084 2 3 cbr 210 ------- 2 1.0 3.1 56 56
- 1.22084 2 3 cbr 210 ------- 2 1.0 3.1 56 56
+ 1.22125 1 2 cbr 210 ------- 2 1.0 3.1 59 59
- 1.22125 1 2 cbr 210 ------- 2 1.0 3.1 59 59
r 1.222762 2 3 cbr 210 ------- 2 1.0 3.1 51 51
r 1.22459 1 2 cbr 210 ------- 2 1.0 3.1 57 57
+ 1.22459 2 3 cbr 210 ------- 2 1.0 3.1 57 57
- 1.22459 2 3 cbr 210 ------- 2 1.0 3.1 57 57
+ 1.225 1 2 cbr 210 ------- 2 1.0 3.1 60 60
- 1.225 1 2 cbr 210 ------- 2 1.0 3.1 60 60
r 1.226512 2 3 cbr 210 ------- 2 1.0 3.1 52 52
r 1.22834 1 2 cbr 210 ------- 2 1.0 3.1 58 58
+ 1.22834 2 3 cbr 210 ------- 2 1.0 3.1 58 58
- 1.22834 2 3 cbr 210 ------- 2 1.0 3.1 58 58
+ 1.22875 1 2 cbr 210 ------- 2 1.0 3.1 61 61
- 1.22875 1 2 cbr 210 ------- 2 1.0 3.1 61 61
r 1.230262 2 3 cbr 210 ------- 2 1.0 3.1 53 53
r 1.23209 1 2 cbr 210 ------- 2 1.0 3.1 59 59
+ 1.23209 2 3 cbr 210 ------- 2 1.0 3.1 59 59
- 1.23209 2 3 cbr 210 ------- 2 1.0 3.1 59 59
+ 1.2325 1 2 cbr 210 ------- 2 1.0 3.1 62 62
- 1.2325 1 2 cbr 210 ------- 2 1.0 3.1 62 62
r 1.234012 2 3 cbr 210 ------- 2 1.0 3.1 54 54
r 1.23584 1 2 cbr 210 ------- 2 1.0 3.1 60 60
+ 1.23584 2 3 cbr 210 ------- 2 1.0 3.1 60 60
- 1.23584 2 3 cbr 210 ------- 2 1.0 3.1 60 60
+ 1.23625 1 2 cbr 210 ------- 2 1.0 3.1 63 63
- 1.23625 1 2 cbr 210 ------- 2 1.0 3.1 63 63
r 1.237762 2 3 cbr 210 ------- 2 1.0 3.1 55 55
r 1.23959 1 2 cbr 210 ------- 2 1.0 3.1 61 61
+ 1.23959 2 3 cbr 210 ------- 2 1.0 3.1 61 61
- 1.23959 2 3 cbr 210 ------- 2 1.0 3.1 61 61
+ 1.24 1 2 cbr 210 ------- 2 1.0 3.1 64 64
- 1.24 1 2 cbr 210 ------- 2 1.0 3.1 64 64
r 1.241512 2 3 cbr 210 ------- 2 1.0 3.1 56 56
r 1.24334 1 2 cbr 210 ------- 2 1.0 3.1 62 62
+ 1.24334 2 3 cbr 210 ------- 2 1.0 3.1 62 62
- 1.24334 2 3 cbr 210 ------- 2 1.0 3.1 62 62
+ 1.24375 1 2 cbr 210 ------- 2 1.0 3.1 65 65
- 1.24375 1 2 cbr 210 ------- 2 1.0 3.1 65 65
r 1.245262 2 3 cbr 210 ------- 2 1.0 3.1 57 57
r 1.24709 1 2 cbr 210 ------- 2 1.0 3.1 63 63
+ 1.24709 2 3 cbr 210 ------- 2 1.0 3.1 63 63
- 1.24709 2 3 cbr 210 ------- 2 1.0 3.1 63 63
+ 1.2475 1 2 cbr 210 ------- 2 1.0 3.1 66 66
- 1.2475 1 2 cbr 210 ------- 2 1.0 3.1 66 66
r 1.249012 2 3 cbr 210 ------- 2 1.0 3.1 58 58
r 1.25084 1 2 cbr 210 ------- 2 1.0 3.1 64 64
+ 1.25084 2 3 cbr 210 ------- 2 1.0 3.1 64 64
- 1.25084 2 3 cbr 210 ------- 2 1.0 3.1 64 64
+ 1.25125 1 2 cbr 210 ------- 2 1.0 3.1 67 67
- 1.25125 1 2 cbr 210 ------- 2 1.0 3.1 67 67
r 1.252762 2 3 cbr 210 ------- 2 1.0 3.1 59 59
r 1.25459 1 2 cbr 210 ------- 2 1.0 3.1 65 65
+ 1.25459 2 3 cbr 210 ------- 2 1.0 3.1 65 65
- 1.25459 2 3 cbr 210 ------- 2 1.0 3.1 65 65
+ 1.255 1 2 cbr 210 ------- 2 1.0 3.1 68 68
- 1.255 1 2 cbr 210 ------- 2 1.0 3.1 68 68
r 1.256512 2 3 cbr 210 ------- 2 1.0 3.1 60 60
r 1.25834 1 2 cbr 210 ------- 2 1.0 3.1 66 66
+ 1.25834 2 3 cbr 210 ------- 2 1.0 3.1 66 66
- 1.25834 2 3 cbr 210 ------- 2 1.0 3.1 66 66
+ 1.25875 1 2 cbr 210 ------- 2 1.0 3.1 69 69
- 1.25875 1 2 cbr 210 ------- 2 1.0 3.1 69 69
r 1.260262 2 3 cbr 210 ------- 2 1.0 3.1 61 61
r 1.26209 1 2 cbr 210 ------- 2 1.0 3.1 67 67
+ 1.26209 2 3 cbr 210 ------- 2 1.0 3.1 67 67
- 1.26209 2 3 cbr 210 ------- 2 1.0 3.1 67 67
+ 1.2625 1 2 cbr 210 ------- 2 1.0 3.1 70 70
- 1.2625 1 2 cbr 210 ------- 2 1.0 3.1 70 70
r 1.264012 2 3 cbr 210 ------- 2 1.0 3.1 62 62
r 1.26584 1 2 cbr 210 ------- 2 1.0 3.1 68 68
+ 1.26584 2 3 cbr 210 ------- 2 1.0 3.1 68 68
- 1.26584 2 3 cbr 210 ------- 2 1.0 3.1 68 68
+ 1.26625 1 2 cbr 210 ------- 2 1.0 3.1 71 71
- 1.26625 1 2 cbr 210 ------- 2 1.0 3.1 71 71
r 1.267762 2 3 cbr 210 ------- 2 1.0 3.1 63 63
r 1.26959 1 2 cbr 210 ------- 2 1.0 3.1 69 69
+ 1.26959 2 3 cbr 210 ------- 2 1.0 3.1 69 69
- 1.26959 2 3 cbr 210 ------- 2 1.0 3.1 69 69
+ 1.27 1 2 cbr 210 ------- 2 1.0 3.1 72 72
- 1.27 1 2 cbr 210 ------- 2 1.0 3.1 72 72
r 1.271512 2 3 cbr 210 ------- 2 1.0 3.1 64 64
r 1.27334 1 2 cbr 210 ------- 2 1.0 3.1 70 70
+ 1.27334 2 3 cbr 210 ------- 2 1.0 3.1 70 70
- 1.27334 2 3 cbr 210 ------- 2 1.0 3.1 70 70
+ 1.27375 1 2 cbr 210 ------- 2 1.0 3.1 73 73
- 1.27375 1 2 cbr 210 ------- 2 1.0 3.1 73 73
r 1.275262 2 3 cbr 210 ------- 2 1.0 3.1 65 65
r 1.27709 1 2 cbr 210 ------- 2 1.0 3.1 71 71
+ 1.27709 2 3 cbr 210 ------- 2 1.0 3.1 71 71
- 1.27709 2 3 cbr 210 ------- 2 1.0 3.1 71 71
+ 1.2775 1 2 cbr 210 ------- 2 1.0 3.1 74 74
- 1.2775 1 2 cbr 210 ------- 2 1.0 3.1 74 74
r 1.279012 2 3 cbr 210 ------- 2 1.0 3.1 66 66
r 1.28084 1 2 cbr 210 ------- 2 1.0 3.1 72 72
+ 1.28084 2 3 cbr 210 ------- 2 1.0 3.1 72 72
- 1.28084 2 3 cbr 210 ------- 2 1.0 3.1 72 72
+ 1.28125 1 2 cbr 210 ------- 2 1.0 3.1 75 75
- 1.28125 1 2 cbr 210 ------- 2 1.0 3.1 75 75
r 1.282762 2 3 cbr 210 ------- 2 1.0 3.1 67 67
r 1.28459 1 2 cbr 210 ------- 2 1.0 3.1 73 73
+ 1.28459 2 3 cbr 210 ------- 2 1.0 3.1 73 73
- 1.28459 2 3 cbr 210 ------- 2 1.0 3.1 73 73
+ 1.285 1 2 cbr 210 ------- 2 1.0 3.1 76 76
- 1.285 1 2 cbr 210 ------- 2 1.0 3.1 76 76
r 1.286512 2 3 cbr 210 ------- 2 1.0 3.1 68 68
r 1.28834 1 2 cbr 210 ------- 2 1.0 3.1 74 74
+ 1.28834 2 3 cbr 210 ------- 2 1.0 3.1 74 74
- 1.28834 2 3 cbr 210 ------- 2 1.0 3.1 74 74
+ 1.28875 1 2 cbr 210 ------- 2 1.0 3.1 77 77
- 1.28875 1 2 cbr 210 ------- 2 1.0 3.1 77 77
r 1.290262 2 3 cbr 210 ------- 2 1.0 3.1 69 69
r 1.29209 1 2 cbr 210 ------- 2 1.0 3.1 75 75
+ 1.29209 2 3 cbr 210 ------- 2 1.0 3.1 75 75
- 1.29209 2 3 cbr 210 ------- 2 1.0 3.1 75 75
+ 1.2925 1 2 cbr 210 ------- 2 1.0 3.1 78 78
- 1.2925 1 2 cbr 210 ------- 2 1.0 3.1 78 78
r 1.294012 2 3 cbr 210 ------- 2 1.0 3.1 70 70
r 1.29584 1 2 cbr 210 ------- 2 1.0 3.1 76 76
+ 1.29584 2 3 cbr 210 ------- 2 1.0 3.1 76 76
- 1.29584 2 3 cbr 210 ------- 2 1.0 3.1 76 76
+ 1.29625 1 2 cbr 210 ------- 2 1.0 3.1 79 79
- 1.29625 1 2 cbr 210 ------- 2 1.0 3.1 79 79
r 1.297762 2 3 cbr 210 ------- 2 1.0 3.1 71 71
r 1.29959 1 2 cbr 210 ------- 2 1.0 3.1 77 77
+ 1.29959 2 3 cbr 210 ------- 2 1.0 3.1 77 77
- 1.29959 2 3 cbr 210 ------- 2 1.0 3.1 77 77
+ 1.3 1 2 cbr 210 ------- 2 1.0 3.1 80 80
- 1.3 1 2 cbr 210 ------- 2 1.0 3.1 80 80
r 1.301512 2 3 cbr 210 ------- 2 1.0 3.1 72 72
r 1.30334 1 2 cbr 210 ------- 2 1.0 3.1 78 78
+ 1.30334 2 3 cbr 210 ------- 2 1.0 3.1 78 78
- 1.30334 2 3 cbr 210 ------- 2 1.0 3.1 78 78
+ 1.30375 1 2 cbr 210 ------- 2 1.0 3.1 81 81
- 1.30375 1 2 cbr 210 ------- 2 1.0 3.1 81 81
r 1.305262 2 3 cbr 210 ------- 2 1.0 3.1 73 73
r 1.30709 1 2 cbr 210 ------- 2 1.0 3.1 79 79
+ 1.30709 2 3 cbr 210 ------- 2 1.0 3.1 79 79
- 1.30709 2 3 cbr 210 ------- 2 1.0 3.1 79 79
+ 1.3075 1 2 cbr 210 ------- 2 1.0 3.1 82 82
- 1.3075 1 2 cbr 210 ------- 2 1.0 3.1 82 82
r 1.309012 2 3 cbr 210 ------- 2 1.0 3.1 74 74
r 1.31084 1 2 cbr 210 ------- 2 1.0 3.1 80 80
+ 1.31084 2 3 cbr 210 ------- 2 1.0 3.1 80 80
- 1.31084 2 3 cbr 210 ------- 2 1.0 3.1 80 80
+ 1.31125 1 2 cbr 210 ------- 2 1.0 3.1 83 83
- 1.31125 1 2 cbr 210 ------- 2 1.0 3.1 83 83
r 1.312762 2 3 cbr 210 ------- 2 1.0 3.1 75 75
r 1.31459 1 2 cbr 210 ------- 2 1.0 3.1 81 81
+ 1.31459 2 3 cbr 210 ------- 2 1.0 3.1 81 81
- 1.31459 2 3 cbr 210 ------- 2 1.0 3.1 81 81
+ 1.315 1 2 cbr 210 ------- 2 1.0 3.1 84 84
- 1.315 1 2 cbr 210 ------- 2 1.0 3.1 84 84
r 1.316512 2 3 cbr 210 ------- 2 1.0 3.1 76 76
r 1.31834 1 2 cbr 210 ------- 2 1.0 3.1 82 82
+ 1.31834 2 3 cbr 210 ------- 2 1.0 3.1 82 82
- 1.31834 2 3 cbr 210 ------- 2 1.0 3.1 82 82
+ 1.31875 1 2 cbr 210 ------- 2 1.0 3.1 85 85
- 1.31875 1 2 cbr 210 ------- 2 1.0 3.1 85 85
r 1.320262 2 3 cbr 210 ------- 2 1.0 3.1 77 77
r 1.32209 1 2 cbr 210 ------- 2 1.0 3.1 83 83
+ 1.32209 2 3 cbr 210 ------- 2 1.0 3.1 83 83
- 1.32209 2 3 cbr 210 ------- 2 1.0 3.1 83 83
+ 1.3225 1 2 cbr 210 ------- 2 1.0 3.1 86 86
- 1.3225 1 2 cbr 210 ------- 2 1.0 3.1 86 86
r 1.324012 2 3 cbr 210 ------- 2 1.0 3.1 78 78
r 1.32584 1 2 cbr 210 ------- 2 1.0 3.1 84 84
+ 1.32584 2 3 cbr 210 ------- 2 1.0 3.1 84 84
- 1.32584 2 3 cbr 210 ------- 2 1.0 3.1 84 84
+ 1.32625 1 2 cbr 210 ------- 2 1.0 3.1 87 87
- 1.32625 1 2 cbr 210 ------- 2 1.0 3.1 87 87
r 1.327762 2 3 cbr 210 ------- 2 1.0 3.1 79 79
r 1.32959 1 2 cbr 210 ------- 2 1.0 3.1 85 85
+ 1.32959 2 3 cbr 210 ------- 2 1.0 3.1 85 85
- 1.32959 2 3 cbr 210 ------- 2 1.0 3.1 85 85
+ 1.33 1 2 cbr 210 ------- 2 1.0 3.1 88 88
- 1.33 1 2 cbr 210 ------- 2 1.0 3.1 88 88
r 1.331512 2 3 cbr 210 ------- 2 1.0 3.1 80 80
r 1.33334 1 2 cbr 210 ------- 2 1.0 3.1 86 86
+ 1.33334 2 3 cbr 210 ------- 2 1.0 3.1 86 86
- 1.33334 2 3 cbr 210 ------- 2 1.0 3.1 86 86
+ 1.33375 1 2 cbr 210 ------- 2 1.0 3.1 89 89
- 1.33375 1 2 cbr 210 ------- 2 1.0 3.1 89 89
r 1.335262 2 3 cbr 210 ------- 2 1.0 3.1 81 81
r 1.33709 1 2 cbr 210 ------- 2 1.0 3.1 87 87
+ 1.33709 2 3 cbr 210 ------- 2 1.0 3.1 87 87
- 1.33709 2 3 cbr 210 ------- 2 1.0 3.1 87 87
+ 1.3375 1 2 cbr 210 ------- 2 1.0 3.1 90 90
- 1.3375 1 2 cbr 210 ------- 2 1.0 3.1 90 90
r 1.339012 2 3 cbr 210 ------- 2 1.0 3.1 82 82
r 1.34084 1 2 cbr 210 ------- 2 1.0 3.1 88 88
+ 1.34084 2 3 cbr 210 ------- 2 1.0 3.1 88 88
- 1.34084 2 3 cbr 210 ------- 2 1.0 3.1 88 88
+ 1.34125 1 2 cbr 210 ------- 2 1.0 3.1 91 91
- 1.34125 1 2 cbr 210 ------- 2 1.0 3.1 91 91
r 1.342762 2 3 cbr 210 ------- 2 1.0 3.1 83 83
r 1.34459 1 2 cbr 210 ------- 2 1.0 3.1 89 89
+ 1.34459 2 3 cbr 210 ------- 2 1.0 3.1 89 89
- 1.34459 2 3 cbr 210 ------- 2 1.0 3.1 89 89
+ 1.345 1 2 cbr 210 ------- 2 1.0 3.1 92 92
- 1.345 1 2 cbr 210 ------- 2 1.0 3.1 92 92
r 1.346512 2 3 cbr 210 ------- 2 1.0 3.1 84 84
r 1.34834 1 2 cbr 210 ------- 2 1.0 3.1 90 90
+ 1.34834 2 3 cbr 210 ------- 2 1.0 3.1 90 90
- 1.34834 2 3 cbr 210 ------- 2 1.0 3.1 90 90
+ 1.34875 1 2 cbr 210 ------- 2 1.0 3.1 93 93
- 1.34875 1 2 cbr 210 ------- 2 1.0 3.1 93 93
r 1.350262 2 3 cbr 210 ------- 2 1.0 3.1 85 85
r 1.35209 1 2 cbr 210 ------- 2 1.0 3.1 91 91
+ 1.35209 2 3 cbr 210 ------- 2 1.0 3.1 91 91
- 1.35209 2 3 cbr 210 ------- 2 1.0 3.1 91 91
+ 1.3525 1 2 cbr 210 ------- 2 1.0 3.1 94 94
- 1.3525 1 2 cbr 210 ------- 2 1.0 3.1 94 94
r 1.354012 2 3 cbr 210 ------- 2 1.0 3.1 86 86
r 1.35584 1 2 cbr 210 ------- 2 1.0 3.1 92 92
+ 1.35584 2 3 cbr 210 ------- 2 1.0 3.1 92 92
- 1.35584 2 3 cbr 210 ------- 2 1.0 3.1 92 92
+ 1.35625 1 2 cbr 210 ------- 2 1.0 3.1 95 95
- 1.35625 1 2 cbr 210 ------- 2 1.0 3.1 95 95
r 1.357762 2 3 cbr 210 ------- 2 1.0 3.1 87 87
r 1.35959 1 2 cbr 210 ------- 2 1.0 3.1 93 93
+ 1.35959 2 3 cbr 210 ------- 2 1.0 3.1 93 93
- 1.35959 2 3 cbr 210 ------- 2 1.0 3.1 93 93
+ 1.36 1 2 cbr 210 ------- 2 1.0 3.1 96 96
- 1.36 1 2 cbr 210 ------- 2 1.0 3.1 96 96
r 1.361512 2 3 cbr 210 ------- 2 1.0 3.1 88 88
r 1.36334 1 2 cbr 210 ------- 2 1.0 3.1 94 94
+ 1.36334 2 3 cbr 210 ------- 2 1.0 3.1 94 94
- 1.36334 2 3 cbr 210 ------- 2 1.0 3.1 94 94
+ 1.36375 1 2 cbr 210 ------- 2 1.0 3.1 97 97
- 1.36375 1 2 cbr 210 ------- 2 1.0 3.1 97 97
r 1.365262 2 3 cbr 210 ------- 2 1.0 3.1 89 89
r 1.36709 1 2 cbr 210 ------- 2 1.0 3.1 95 95
+ 1.36709 2 3 cbr 210 ------- 2 1.0 3.1 95 95
- 1.36709 2 3 cbr 210 ------- 2 1.0 3.1 95 95
+ 1.3675 1 2 cbr 210 ------- 2 1.0 3.1 98 98
- 1.3675 1 2 cbr 210 ------- 2 1.0 3.1 98 98
r 1.369012 2 3 cbr 210 ------- 2 1.0 3.1 90 90
r 1.37084 1 2 cbr 210 ------- 2 1.0 3.1 96 96
+ 1.37084 2 3 cbr 210 ------- 2 1.0 3.1 96 96
- 1.37084 2 3 cbr 210 ------- 2 1.0 3.1 96 96
+ 1.37125 1 2 cbr 210 ------- 2 1.0 3.1 99 99
- 1.37125 1 2 cbr 210 ------- 2 1.0 3.1 99 99
r 1.372762 2 3 cbr 210 ------- 2 1.0 3.1 91 91
r 1.37459 1 2 cbr 210 ------- 2 1.0 3.1 97 97
+ 1.37459 2 3 cbr 210 ------- 2 1.0 3.1 97 97
- 1.37459 2 3 cbr 210 ------- 2 1.0 3.1 97 97
+ 1.375 1 2 cbr 210 ------- 2 1.0 3.1 100 100
- 1.375 1 2 cbr 210 ------- 2 1.0 3.1 100 100
r 1.376512 2 3 cbr 210 ------- 2 1.0 3.1 92 92
r 1.37834 1 2 cbr 210 ------- 2 1.0 3.1 98 98
+ 1.37834 2 3 cbr 210 ------- 2 1.0 3.1 98 98
- 1.37834 2 3 cbr 210 ------- 2 1.0 3.1 98 98
+ 1.37875 1 2 cbr 210 ------- 2 1.0 3.1 101 101
- 1.37875 1 2 cbr 210 ------- 2 1.0 3.1 101 101
r 1.380262 2 3 cbr 210 ------- 2 1.0 3.1 93 93
r 1.38209 1 2 cbr 210 ------- 2 1.0 3.1 99 99
+ 1.38209 2 3 cbr 210 ------- 2 1.0 3.1 99 99
- 1.38209 2 3 cbr 210 ------- 2 1.0 3.1 99 99
+ 1.3825 1 2 cbr 210 ------- 2 1.0 3.1 102 102
- 1.3825 1 2 cbr 210 ------- 2 1.0 3.1 102 102
r 1.384012 2 3 cbr 210 ------- 2 1.0 3.1 94 94
r 1.38584 1 2 cbr 210 ------- 2 1.0 3.1 100 100
+ 1.38584 2 3 cbr 210 ------- 2 1.0 3.1 100 100
- 1.38584 2 3 cbr 210 ------- 2 1.0 3.1 100 100
+ 1.38625 1 2 cbr 210 ------- 2 1.0 3.1 103 103
- 1.38625 1 2 cbr 210 ------- 2 1.0 3.1 103 103
r 1.387762 2 3 cbr 210 ------- 2 1.0 3.1 95 95
r 1.38959 1 2 cbr 210 ------- 2 1.0 3.1 101 101
+ 1.38959 2 3 cbr 210 ------- 2 1.0 3.1 101 101
- 1.38959 2 3 cbr 210 ------- 2 1.0 3.1 101 101
+ 1.39 1 2 cbr 210 ------- 2 1.0 3.1 104 104
- 1.39 1 2 cbr 210 ------- 2 1.0 3.1 104 104
r 1.391512 2 3 cbr 210 ------- 2 1.0 3.1 96 96
r 1.39334 1 2 cbr 210 ------- 2 1.0 3.1 102 102
+ 1.39334 2 3 cbr 210 ------- 2 1.0 3.1 102 102
- 1.39334 2 3 cbr 210 ------- 2 1.0 3.1 102 102
+ 1.39375 1 2 cbr 210 ------- 2 1.0 3.1 105 105
- 1.39375 1 2 cbr 210 ------- 2 1.0 3.1 105 105
r 1.395262 2 3 cbr 210 ------- 2 1.0 3.1 97 97
r 1.39709 1 2 cbr 210 ------- 2 1.0 3.1 103 103
+ 1.39709 2 3 cbr 210 ------- 2 1.0 3.1 103 103
- 1.39709 2 3 cbr 210 ------- 2 1.0 3.1 103 103
+ 1.3975 1 2 cbr 210 ------- 2 1.0 3.1 106 106
- 1.3975 1 2 cbr 210 ------- 2 1.0 3.1 106 106
r 1.399012 2 3 cbr 210 ------- 2 1.0 3.1 98 98
r 1.40084 1 2 cbr 210 ------- 2 1.0 3.1 104 104
+ 1.40084 2 3 cbr 210 ------- 2 1.0 3.1 104 104
- 1.40084 2 3 cbr 210 ------- 2 1.0 3.1 104 104
+ 1.40125 1 2 cbr 210 ------- 2 1.0 3.1 107 107
- 1.40125 1 2 cbr 210 ------- 2 1.0 3.1 107 107
r 1.402762 2 3 cbr 210 ------- 2 1.0 3.1 99 99
r 1.40459 1 2 cbr 210 ------- 2 1.0 3.1 105 105
+ 1.40459 2 3 cbr 210 ------- 2 1.0 3.1 105 105
- 1.40459 2 3 cbr 210 ------- 2 1.0 3.1 105 105
+ 1.405 1 2 cbr 210 ------- 2 1.0 3.1 108 108
- 1.405 1 2 cbr 210 ------- 2 1.0 3.1 108 108
r 1.406512 2 3 cbr 210 ------- 2 1.0 3.1 100 100
r 1.40834 1 2 cbr 210 ------- 2 1.0 3.1 106 106
+ 1.40834 2 3 cbr 210 ------- 2 1.0 3.1 106 106
- 1.40834 2 3 cbr 210 ------- 2 1.0 3.1 106 106
+ 1.40875 1 2 cbr 210 ------- 2 1.0 3.1 109 109
- 1.40875 1 2 cbr 210 ------- 2 1.0 3.1 109 109
r 1.410262 2 3 cbr 210 ------- 2 1.0 3.1 101 101
r 1.41209 1 2 cbr 210 ------- 2 1.0 3.1 107 107
+ 1.41209 2 3 cbr 210 ------- 2 1.0 3.1 107 107
- 1.41209 2 3 cbr 210 ------- 2 1.0 3.1 107 107
+ 1.4125 1 2 cbr 210 ------- 2 1.0 3.1 110 110
- 1.4125 1 2 cbr 210 ------- 2 1.0 3.1 110 110
r 1.414012 2 3 cbr 210 ------- 2 1.0 3.1 102 102
r 1.41584 1 2 cbr 210 ------- 2 1.0 3.1 108 108
+ 1.41584 2 3 cbr 210 ------- 2 1.0 3.1 108 108
- 1.41584 2 3 cbr 210 ------- 2 1.0 3.1 108 108
+ 1.41625 1 2 cbr 210 ------- 2 1.0 3.1 111 111
- 1.41625 1 2 cbr 210 ------- 2 1.0 3.1 111 111