h 2 3 10 cbr 210 ------- 2 3.0 6.0 0 0
h 2 0 10 tcp 40 ------- 1 0.0 9.0 0 1
h 2.002 3 10 cbr 210 ------- 2 3.0 6.0 1 2
h 2.004 3 10 cbr 210 ------- 2 3.0 6.0 2 3
h 2.006 3 10 cbr 210 ------- 2 3.0 6.0 3 4
h 2.008 3 10 cbr 210 ------- 2 3.0 6.0 4 5
h 2.01 3 10 cbr 210 ------- 2 3.0 6.0 5 6
+ 2.01 3 10 cbr 210 ------- 2 3.0 6.0 0 0
- 2.01 3 10 cbr 210 ------- 2 3.0 6.0 0 0
+ 2.01 0 10 tcp 40 ------- 1 0.0 9.0 0 1
- 2.01 0 10 tcp 40 ------- 1 0.0 9.0 0 1
h 2.012 3 10 cbr 210 ------- 2 3.0 6.0 6 7
+ 2.012 3 10 cbr 210 ------- 2 3.0 6.0 1 2
- 2.012 3 10 cbr 210 ------- 2 3.0 6.0 1 2
h 2.014 3 10 cbr 210 ------- 2 3.0 6.0 7 8
+ 2.014 3 10 cbr 210 ------- 2 3.0 6.0 2 3
- 2.014 3 10 cbr 210 ------- 2 3.0 6.0 2 3
h 2.016 3 10 cbr 210 ------- 2 3.0 6.0 8 9
+ 2.016 3 10 cbr 210 ------- 2 3.0 6.0 3 4
- 2.016 3 10 cbr 210 ------- 2 3.0 6.0 3 4
h 2.018 3 10 cbr 210 ------- 2 3.0 6.0 9 10
+ 2.018 3 10 cbr 210 ------- 2 3.0 6.0 4 5
- 2.018 3 10 cbr 210 ------- 2 3.0 6.0 4 5
h 2.02 3 10 cbr 210 ------- 2 3.0 6.0 10 11
+ 2.02 3 10 cbr 210 ------- 2 3.0 6.0 5 6
- 2.02 3 10 cbr 210 ------- 2 3.0 6.0 5 6
r 2.020072 10 4 tcp 40 ------- 1 0.0 9.0 0 1
d 2.020072 4 5 tcp 40 ------- 1 0.0 9.0 0 1
r 2.020265 10 4 cbr 210 ------- 2 3.0 6.0 0 0
+ 2.020265 4 5 cbr 210 ------- 2 3.0 6.0 0 0
- 2.020265 4 5 cbr 210 ------- 2 3.0 6.0 0 0
h 2.022 3 10 cbr 210 ------- 2 3.0 6.0 11 12
+ 2.022 3 10 cbr 210 ------- 2 3.0 6.0 6 7
- 2.022 3 10 cbr 210 ------- 2 3.0 6.0 6 7
r 2.022183 10 4 cbr 210 ------- 2 3.0 6.0 1 2
d 2.022183 4 5 cbr 210 ------- 2 3.0 6.0 1 2
h 2.024 3 10 cbr 210 ------- 2 3.0 6.0 12 13
+ 2.024 3 10 cbr 210 ------- 2 3.0 6.0 7 8
- 2.024 3 10 cbr 210 ------- 2 3.0 6.0 7 8
r 2.024183 10 4 cbr 210 ------- 2 3.0 6.0 2 3
+ 2.024183 4 5 cbr 210 ------- 2 3.0 6.0 2 3
- 2.024183 4 5 cbr 210 ------- 2 3.0 6.0 2 3
h 2.026 3 10 cbr 210 ------- 2 3.0 6.0 13 14
+ 2.026 3 10 cbr 210 ------- 2 3.0 6.0 8 9
- 2.026 3 10 cbr 210 ------- 2 3.0 6.0 8 9
r 2.026183 10 4 cbr 210 ------- 2 3.0 6.0 3 4
d 2.026183 4 5 cbr 210 ------- 2 3.0 6.0 3 4
h 2.028 3 10 cbr 210 ------- 2 3.0 6.0 14 15
+ 2.028 3 10 cbr 210 ------- 2 3.0 6.0 9 10
- 2.028 3 10 cbr 210 ------- 2 3.0 6.0 9 10
r 2.028183 10 4 cbr 210 ------- 2 3.0 6.0 4 5
+ 2.028183 4 5 cbr 210 ------- 2 3.0 6.0 4 5
- 2.028183 4 5 cbr 210 ------- 2 3.0 6.0 4 5
h 2.03 3 10 cbr 210 ------- 2 3.0 6.0 15 16
+ 2.03 3 10 cbr 210 ------- 2 3.0 6.0 10 11
- 2.03 3 10 cbr 210 ------- 2 3.0 6.0 10 11
r 2.030183 10 4 cbr 210 ------- 2 3.0 6.0 5 6
d 2.030183 4 5 cbr 210 ------- 2 3.0 6.0 5 6
h 2.032 3 10 cbr 210 ------- 2 3.0 6.0 16 17
+ 2.032 3 10 cbr 210 ------- 2 3.0 6.0 11 12
- 2.032 3 10 cbr 210 ------- 2 3.0 6.0 11 12
r 2.032183 10 4 cbr 210 ------- 2 3.0 6.0 6 7
+ 2.032183 4 5 cbr 210 ------- 2 3.0 6.0 6 7
- 2.032183 4 5 cbr 210 ------- 2 3.0 6.0 6 7
h 2.034 3 10 cbr 210 ------- 2 3.0 6.0 17 18
+ 2.034 3 10 cbr 210 ------- 2 3.0 6.0 12 13
- 2.034 3 10 cbr 210 ------- 2 3.0 6.0 12 13
r 2.034183 10 4 cbr 210 ------- 2 3.0 6.0 7 8
d 2.034183 4 5 cbr 210 ------- 2 3.0 6.0 7 8
h 2.036 3 10 cbr 210 ------- 2 3.0 6.0 18 19
+ 2.036 3 10 cbr 210 ------- 2 3.0 6.0 13 14
- 2.036 3 10 cbr 210 ------- 2 3.0 6.0 13 14
r 2.036183 10 4 cbr 210 ------- 2 3.0 6.0 8 9
d 2.036183 4 5 cbr 210 ------- 2 3.0 6.0 8 9
h 2.038 3 10 cbr 210 ------- 2 3.0 6.0 19 20
+ 2.038 3 10 cbr 210 ------- 2 3.0 6.0 14 15
- 2.038 3 10 cbr 210 ------- 2 3.0 6.0 14 15
r 2.038183 10 4 cbr 210 ------- 2 3.0 6.0 9 10
+ 2.038183 4 5 cbr 210 ------- 2 3.0 6.0 9 10
- 2.038183 4 5 cbr 210 ------- 2 3.0 6.0 9 10
h 2.04 3 10 cbr 210 ------- 2 3.0 6.0 20 21
+ 2.04 3 10 cbr 210 ------- 2 3.0 6.0 15 16
- 2.04 3 10 cbr 210 ------- 2 3.0 6.0 15 16
r 2.040183 10 4 cbr 210 ------- 2 3.0 6.0 10 11
d 2.040183 4 5 cbr 210 ------- 2 3.0 6.0 10 11
h 2.042 3 10 cbr 210 ------- 2 3.0 6.0 21 22
+ 2.042 3 10 cbr 210 ------- 2 3.0 6.0 16 17
- 2.042 3 10 cbr 210 ------- 2 3.0 6.0 16 17
r 2.042183 10 4 cbr 210 ------- 2 3.0 6.0 11 12
+ 2.042183 4 5 cbr 210 ------- 2 3.0 6.0 11 12
- 2.042183 4 5 cbr 210 ------- 2 3.0 6.0 11 12
h 2.044 3 10 cbr 210 ------- 2 3.0 6.0 22 23
+ 2.044 3 10 cbr 210 ------- 2 3.0 6.0 17 18
- 2.044 3 10 cbr 210 ------- 2 3.0 6.0 17 18
r 2.044183 10 4 cbr 210 ------- 2 3.0 6.0 12 13
d 2.044183 4 5 cbr 210 ------- 2 3.0 6.0 12 13
h 2.046 3 10 cbr 210 ------- 2 3.0 6.0 23 24
+ 2.046 3 10 cbr 210 ------- 2 3.0 6.0 18 19
- 2.046 3 10 cbr 210 ------- 2 3.0 6.0 18 19
r 2.046183 10 4 cbr 210 ------- 2 3.0 6.0 13 14
d 2.046183 4 5 cbr 210 ------- 2 3.0 6.0 13 14
h 2.048 3 10 cbr 210 ------- 2 3.0 6.0 24 25
+ 2.048 3 10 cbr 210 ------- 2 3.0 6.0 19 20
- 2.048 3 10 cbr 210 ------- 2 3.0 6.0 19 20
r 2.048183 10 4 cbr 210 ------- 2 3.0 6.0 14 15
d 2.048183 4 5 cbr 210 ------- 2 3.0 6.0 14 15
h 2.05 3 10 cbr 210 ------- 2 3.0 6.0 25 26
+ 2.05 3 10 cbr 210 ------- 2 3.0 6.0 20 21
- 2.05 3 10 cbr 210 ------- 2 3.0 6.0 20 21
r 2.050183 10 4 cbr 210 ------- 2 3.0 6.0 15 16
+ 2.050183 4 5 cbr 210 ------- 2 3.0 6.0 15 16
- 2.050183 4 5 cbr 210 ------- 2 3.0 6.0 15 16
r 2.050433 4 5 cbr 210 ------- 2 3.0 6.0 0 0
h 2.050433 5 11 cbr 210 ------- 2 3.0 6.0 0 0
h 2.052 3 10 cbr 210 ------- 2 3.0 6.0 26 27
+ 2.052 3 10 cbr 210 ------- 2 3.0 6.0 21 22
- 2.052 3 10 cbr 210 ------- 2 3.0 6.0 21 22
r 2.052183 10 4 cbr 210 ------- 2 3.0 6.0 16 17
d 2.052183 4 5 cbr 210 ------- 2 3.0 6.0 16 17
h 2.054 3 10 cbr 210 ------- 2 3.0 6.0 27 28
+ 2.054 3 10 cbr 210 ------- 2 3.0 6.0 22 23
- 2.054 3 10 cbr 210 ------- 2 3.0 6.0 22 23
r 2.054183 10 4 cbr 210 ------- 2 3.0 6.0 17 18
d 2.054183 4 5 cbr 210 ------- 2 3.0 6.0 17 18
r 2.054351 4 5 cbr 210 ------- 2 3.0 6.0 2 3
h 2.054351 5 11 cbr 210 ------- 2 3.0 6.0 2 3
h 2.056 3 10 cbr 210 ------- 2 3.0 6.0 28 29
+ 2.056 3 10 cbr 210 ------- 2 3.0 6.0 23 24
- 2.056 3 10 cbr 210 ------- 2 3.0 6.0 23 24
r 2.056183 10 4 cbr 210 ------- 2 3.0 6.0 18 19
d 2.056183 4 5 cbr 210 ------- 2 3.0 6.0 18 19
h 2.058 3 10 cbr 210 ------- 2 3.0 6.0 29 30
+ 2.058 3 10 cbr 210 ------- 2 3.0 6.0 24 25
- 2.058 3 10 cbr 210 ------- 2 3.0 6.0 24 25
r 2.058183 10 4 cbr 210 ------- 2 3.0 6.0 19 20
d 2.058183 4 5 cbr 210 ------- 2 3.0 6.0 19 20
r 2.058351 4 5 cbr 210 ------- 2 3.0 6.0 4 5
h 2.058351 5 11 cbr 210 ------- 2 3.0 6.0 4 5
h 2.06 3 10 cbr 210 ------- 2 3.0 6.0 30 31
+ 2.06 3 10 cbr 210 ------- 2 3.0 6.0 25 26
- 2.06 3 10 cbr 210 ------- 2 3.0 6.0 25 26
r 2.060183 10 4 cbr 210 ------- 2 3.0 6.0 20 21
d 2.060183 4 5 cbr 210 ------- 2 3.0 6.0 20 21
+ 2.060433 5 11 cbr 210 ------- 2 3.0 6.0 0 0
- 2.060433 5 11 cbr 210 ------- 2 3.0 6.0 0 0
h 2.062 3 10 cbr 210 ------- 2 3.0 6.0 31 32
+ 2.062 3 10 cbr 210 ------- 2 3.0 6.0 26 27
- 2.062 3 10 cbr 210 ------- 2 3.0 6.0 26 27
r 2.062183 10 4 cbr 210 ------- 2 3.0 6.0 21 22
+ 2.062183 4 5 cbr 210 ------- 2 3.0 6.0 21 22
- 2.062183 4 5 cbr 210 ------- 2 3.0 6.0 21 22
r 2.062351 4 5 cbr 210 ------- 2 3.0 6.0 6 7
h 2.062351 5 11 cbr 210 ------- 2 3.0 6.0 6 7
h 2.064 3 10 cbr 210 ------- 2 3.0 6.0 32 33
+ 2.064 3 10 cbr 210 ------- 2 3.0 6.0 27 28
- 2.064 3 10 cbr 210 ------- 2 3.0 6.0 27 28
r 2.064183 10 4 cbr 210 ------- 2 3.0 6.0 22 23
+ 2.064183 4 5 cbr 210 ------- 2 3.0 6.0 22 23
- 2.064183 4 5 cbr 210 ------- 2 3.0 6.0 22 23
+ 2.064351 5 11 cbr 210 ------- 2 3.0 6.0 2 3
- 2.064351 5 11 cbr 210 ------- 2 3.0 6.0 2 3
h 2.066 3 10 cbr 210 ------- 2 3.0 6.0 33 34
+ 2.066 3 10 cbr 210 ------- 2 3.0 6.0 28 29
- 2.066 3 10 cbr 210 ------- 2 3.0 6.0 28 29
r 2.066183 10 4 cbr 210 ------- 2 3.0 6.0 23 24
+ 2.066183 4 5 cbr 210 ------- 2 3.0 6.0 23 24
- 2.066183 4 5 cbr 210 ------- 2 3.0 6.0 23 24
h 2.068 3 10 cbr 210 ------- 2 3.0 6.0 34 35
+ 2.068 3 10 cbr 210 ------- 2 3.0 6.0 29 30
- 2.068 3 10 cbr 210 ------- 2 3.0 6.0 29 30
r 2.068183 10 4 cbr 210 ------- 2 3.0 6.0 24 25
d 2.068183 4 5 cbr 210 ------- 2 3.0 6.0 24 25
r 2.068351 4 5 cbr 210 ------- 2 3.0 6.0 9 10
h 2.068351 5 11 cbr 210 ------- 2 3.0 6.0 9 10
+ 2.068351 5 11 cbr 210 ------- 2 3.0 6.0 4 5
- 2.068351 5 11 cbr 210 ------- 2 3.0 6.0 4 5
h 2.07 3 10 cbr 210 ------- 2 3.0 6.0 35 36
+ 2.07 3 10 cbr 210 ------- 2 3.0 6.0 30 31
- 2.07 3 10 cbr 210 ------- 2 3.0 6.0 30 31
r 2.070183 10 4 cbr 210 ------- 2 3.0 6.0 25 26
d 2.070183 4 5 cbr 210 ------- 2 3.0 6.0 25 26
r 2.070616 11 6 cbr 210 ------- 2 3.0 6.0 0 0
h 2.072 3 10 cbr 210 ------- 2 3.0 6.0 36 37
+ 2.072 3 10 cbr 210 ------- 2 3.0 6.0 31 32
- 2.072 3 10 cbr 210 ------- 2 3.0 6.0 31 32
r 2.072183 10 4 cbr 210 ------- 2 3.0 6.0 26 27
+ 2.072183 4 5 cbr 210 ------- 2 3.0 6.0 26 27
- 2.072183 4 5 cbr 210 ------- 2 3.0 6.0 26 27
r 2.072351 4 5 cbr 210 ------- 2 3.0 6.0 11 12
h 2.072351 5 11 cbr 210 ------- 2 3.0 6.0 11 12
+ 2.072351 5 11 cbr 210 ------- 2 3.0 6.0 6 7
- 2.072351 5 11 cbr 210 ------- 2 3.0 6.0 6 7
h 2.074 3 10 cbr 210 ------- 2 3.0 6.0 37 38
+ 2.074 3 10 cbr 210 ------- 2 3.0 6.0 32 33
- 2.074 3 10 cbr 210 ------- 2 3.0 6.0 32 33
r 2.074183 10 4 cbr 210 ------- 2 3.0 6.0 27 28
+ 2.074183 4 5 cbr 210 ------- 2 3.0 6.0 27 28
- 2.074183 4 5 cbr 210 ------- 2 3.0 6.0 27 28
r 2.074534 11 6 cbr 210 ------- 2 3.0 6.0 2 3
h 2.076 3 10 cbr 210 ------- 2 3.0 6.0 38 39
+ 2.076 3 10 cbr 210 ------- 2 3.0 6.0 33 34
- 2.076 3 10 cbr 210 ------- 2 3.0 6.0 33 34
r 2.076183 10 4 cbr 210 ------- 2 3.0 6.0 28 29
+ 2.076183 4 5 cbr 210 ------- 2 3.0 6.0 28 29
- 2.076183 4 5 cbr 210 ------- 2 3.0 6.0 28 29
h 2.078 3 10 cbr 210 ------- 2 3.0 6.0 39 40
+ 2.078 3 10 cbr 210 ------- 2 3.0 6.0 34 35
- 2.078 3 10 cbr 210 ------- 2 3.0 6.0 34 35
r 2.078183 10 4 cbr 210 ------- 2 3.0 6.0 29 30
+ 2.078183 4 5 cbr 210 ------- 2 3.0 6.0 29 30
- 2.078183 4 5 cbr 210 ------- 2 3.0 6.0 29 30
+ 2.078351 5 11 cbr 210 ------- 2 3.0 6.0 9 10
- 2.078351 5 11 cbr 210 ------- 2 3.0 6.0 9 10
r 2.078534 11 6 cbr 210 ------- 2 3.0 6.0 4 5
h 2.08 3 10 cbr 210 ------- 2 3.0 6.0 40 41
+ 2.08 3 10 cbr 210 ------- 2 3.0 6.0 35 36
- 2.08 3 10 cbr 210 ------- 2 3.0 6.0 35 36
r 2.080183 10 4 cbr 210 ------- 2 3.0 6.0 30 31
d 2.080183 4 5 cbr 210 ------- 2 3.0 6.0 30 31
r 2.080351 4 5 cbr 210 ------- 2 3.0 6.0 15 16
h 2.080351 5 11 cbr 210 ------- 2 3.0 6.0 15 16
h 2.082 3 10 cbr 210 ------- 2 3.0 6.0 41 42
+ 2.082 3 10 cbr 210 ------- 2 3.0 6.0 36 37
- 2.082 3 10 cbr 210 ------- 2 3.0 6.0 36 37
r 2.082183 10 4 cbr 210 ------- 2 3.0 6.0 31 32
d 2.082183 4 5 cbr 210 ------- 2 3.0 6.0 31 32
+ 2.082351 5 11 cbr 210 ------- 2 3.0 6.0 11 12
- 2.082351 5 11 cbr 210 ------- 2 3.0 6.0 11 12
r 2.082534 11 6 cbr 210 ------- 2 3.0 6.0 6 7
h 2.084 3 10 cbr 210 ------- 2 3.0 6.0 42 43
+ 2.084 3 10 cbr 210 ------- 2 3.0 6.0 37 38
- 2.084 3 10 cbr 210 ------- 2 3.0 6.0 37 38
r 2.084183 10 4 cbr 210 ------- 2 3.0 6.0 32 33
d 2.084183 4 5 cbr 210 ------- 2 3.0 6.0 32 33
h 2.086 3 10 cbr 210 ------- 2 3.0 6.0 43 44
+ 2.086 3 10 cbr 210 ------- 2 3.0 6.0 38 39
- 2.086 3 10 cbr 210 ------- 2 3.0 6.0 38 39
r 2.086183 10 4 cbr 210 ------- 2 3.0 6.0 33 34
d 2.086183 4 5 cbr 210 ------- 2 3.0 6.0 33 34
h 2.088 3 10 cbr 210 ------- 2 3.0 6.0 44 45
+ 2.088 3 10 cbr 210 ------- 2 3.0 6.0 39 40
- 2.088 3 10 cbr 210 ------- 2 3.0 6.0 39 40
r 2.088183 10 4 cbr 210 ------- 2 3.0 6.0 34 35
+ 2.088183 4 5 cbr 210 ------- 2 3.0 6.0 34 35
- 2.088183 4 5 cbr 210 ------- 2 3.0 6.0 34 35
r 2.088534 11 6 cbr 210 ------- 2 3.0 6.0 9 10
h 2.09 3 10 cbr 210 ------- 2 3.0 6.0 45 46
+ 2.09 3 10 cbr 210 ------- 2 3.0 6.0 40 41
- 2.09 3 10 cbr 210 ------- 2 3.0 6.0 40 41
r 2.090183 10 4 cbr 210 ------- 2 3.0 6.0 35 36
+ 2.090183 4 5 cbr 210 ------- 2 3.0 6.0 35 36
- 2.090183 4 5 cbr 210 ------- 2 3.0 6.0 35 36
+ 2.090351 5 11 cbr 210 ------- 2 3.0 6.0 15 16
- 2.090351 5 11 cbr 210 ------- 2 3.0 6.0 15 16
h 2.092 3 10 cbr 210 ------- 2 3.0 6.0 46 47
+ 2.092 3 10 cbr 210 ------- 2 3.0 6.0 41 42
- 2.092 3 10 cbr 210 ------- 2 3.0 6.0 41 42
r 2.092183 10 4 cbr 210 ------- 2 3.0 6.0 36 37
+ 2.092183 4 5 cbr 210 ------- 2 3.0 6.0 36 37
- 2.092183 4 5 cbr 210 ------- 2 3.0 6.0 36 37
r 2.092351 4 5 cbr 210 ------- 2 3.0 6.0 21 22
h 2.092351 5 11 cbr 210 ------- 2 3.0 6.0 21 22
r 2.092534 11 6 cbr 210 ------- 2 3.0 6.0 11 12
h 2.094 3 10 cbr 210 ------- 2 3.0 6.0 47 48
+ 2.094 3 10 cbr 210 ------- 2 3.0 6.0 42 43
- 2.094 3 10 cbr 210 ------- 2 3.0 6.0 42 43
r 2.094183 10 4 cbr 210 ------- 2 3.0 6.0 37 38
d 2.094183 4 5 cbr 210 ------- 2 3.0 6.0 37 38
r 2.094351 4 5 cbr 210 ------- 2 3.0 6.0 22 23
h 2.094351 5 11 cbr 210 ------- 2 3.0 6.0 22 23
h 2.096 3 10 cbr 210 ------- 2 3.0 6.0 48 49
+ 2.096 3 10 cbr 210 ------- 2 3.0 6.0 43 44
- 2.096 3 10 cbr 210 ------- 2 3.0 6.0 43 44
r 2.096183 10 4 cbr 210 ------- 2 3.0 6.0 38 39
d 2.096183 4 5 cbr 210 ------- 2 3.0 6.0 38 39
r 2.096351 4 5 cbr 210 ------- 2 3.0 6.0 23 24
h 2.096351 5 11 cbr 210 ------- 2 3.0 6.0 23 24
h 2.098 3 10 cbr 210 ------- 2 3.0 6.0 49 50
+ 2.098 3 10 cbr 210 ------- 2 3.0 6.0 44 45
- 2.098 3 10 cbr 210 ------- 2 3.0 6.0 44 45
r 2.098183 10 4 cbr 210 ------- 2 3.0 6.0 39 40
d 2.098183 4 5 cbr 210 ------- 2 3.0 6.0 39 40
h 2.1 3 10 cbr 210 ------- 2 3.0 6.0 50 51
+ 2.1 3 10 cbr 210 ------- 2 3.0 6.0 45 46
- 2.1 3 10 cbr 210 ------- 2 3.0 6.0 45 46
r 2.100183 10 4 cbr 210 ------- 2 3.0 6.0 40 41
d 2.100183 4 5 cbr 210 ------- 2 3.0 6.0 40 41
r 2.100534 11 6 cbr 210 ------- 2 3.0 6.0 15 16
h 2.102 3 10 cbr 210 ------- 2 3.0 6.0 51 52
+ 2.102 3 10 cbr 210 ------- 2 3.0 6.0 46 47
- 2.102 3 10 cbr 210 ------- 2 3.0 6.0 46 47
r 2.102183 10 4 cbr 210 ------- 2 3.0 6.0 41 42
d 2.102183 4 5 cbr 210 ------- 2 3.0 6.0 41 42
r 2.102351 4 5 cbr 210 ------- 2 3.0 6.0 26 27
h 2.102351 5 11 cbr 210 ------- 2 3.0 6.0 26 27
+ 2.102351 5 11 cbr 210 ------- 2 3.0 6.0 21 22
- 2.102351 5 11 cbr 210 ------- 2 3.0 6.0 21 22
h 2.104 3 10 cbr 210 ------- 2 3.0 6.0 52 53
+ 2.104 3 10 cbr 210 ------- 2 3.0 6.0 47 48
- 2.104 3 10 cbr 210 ------- 2 3.0 6.0 47 48
r 2.104183 10 4 cbr 210 ------- 2 3.0 6.0 42 43
d 2.104183 4 5 cbr 210 ------- 2 3.0 6.0 42 43
r 2.104351 4 5 cbr 210 ------- 2 3.0 6.0 27 28
h 2.104351 5 11 cbr 210 ------- 2 3.0 6.0 27 28
+ 2.104351 5 11 cbr 210 ------- 2 3.0 6.0 22 23
- 2.104351 5 11 cbr 210 ------- 2 3.0 6.0 22 23
h 2.106 3 10 cbr 210 ------- 2 3.0 6.0 53 54
+ 2.106 3 10 cbr 210 ------- 2 3.0 6.0 48 49
- 2.106 3 10 cbr 210 ------- 2 3.0 6.0 48 49
r 2.106183 10 4 cbr 210 ------- 2 3.0 6.0 43 44
+ 2.106183 4 5 cbr 210 ------- 2 3.0 6.0 43 44
- 2.106183 4 5 cbr 210 ------- 2 3.0 6.0 43 44
r 2.106351 4 5 cbr 210 ------- 2 3.0 6.0 28 29
h 2.106351 5 11 cbr 210 ------- 2 3.0 6.0 28 29
+ 2.106351 5 11 cbr 210 ------- 2 3.0 6.0 23 24
- 2.106351 5 11 cbr 210 ------- 2 3.0 6.0 23 24
h 2.108 3 10 cbr 210 ------- 2 3.0 6.0 54 55
+ 2.108 3 10 cbr 210 ------- 2 3.0 6.0 49 50
- 2.108 3 10 cbr 210 ------- 2 3.0 6.0 49 50
r 2.108183 10 4 cbr 210 ------- 2 3.0 6.0 44 45
d 2.108183 4 5 cbr 210 ------- 2 3.0 6.0 44 45
r 2.108351 4 5 cbr 210 ------- 2 3.0 6.0 29 30
h 2.108351 5 11 cbr 210 ------- 2 3.0 6.0 29 30
h 2.11 3 10 cbr 210 ------- 2 3.0 6.0 55 56
+ 2.11 3 10 cbr 210 ------- 2 3.0 6.0 50 51
- 2.11 3 10 cbr 210 ------- 2 3.0 6.0 50 51
r 2.110183 10 4 cbr 210 ------- 2 3.0 6.0 45 46
+ 2.110183 4 5 cbr 210 ------- 2 3.0 6.0 45 46
- 2.110183 4 5 cbr 210 ------- 2 3.0 6.0 45 46
h 2.112 3 10 cbr 210 ------- 2 3.0 6.0 56 57
+ 2.112 3 10 cbr 210 ------- 2 3.0 6.0 51 52
- 2.112 3 10 cbr 210 ------- 2 3.0 6.0 51 52
r 2.112183 10 4 cbr 210 ------- 2 3.0 6.0 46 47
d 2.112183 4 5 cbr 210 ------- 2 3.0 6.0 46 47
+ 2.112351 5 11 cbr 210 ------- 2 3.0 6.0 26 27
- 2.112351 5 11 cbr 210 ------- 2 3.0 6.0 26 27
r 2.112534 11 6 cbr 210 ------- 2 3.0 6.0 21 22
h 2.114 3 10 cbr 210 ------- 2 3.0 6.0 57 58
+ 2.114 3 10 cbr 210 ------- 2 3.0 6.0 52 53
- 2.114 3 10 cbr 210 ------- 2 3.0 6.0 52 53
r 2.114183 10 4 cbr 210 ------- 2 3.0 6.0 47 48
+ 2.114183 4 5 cbr 210 ------- 2 3.0 6.0 47 48
- 2.114183 4 5 cbr 210 ------- 2 3.0 6.0 47 48
+ 2.114351 5 11 cbr 210 ------- 2 3.0 6.0 27 28
- 2.114351 5 11 cbr 210 ------- 2 3.0 6.0 27 28
r 2.114534 11 6 cbr 210 ------- 2 3.0 6.0 22 23
h 2.116 3 10 cbr 210 ------- 2 3.0 6.0 58 59
+ 2.116 3 10 cbr 210 ------- 2 3.0 6.0 53 54
- 2.116 3 10 cbr 210 ------- 2 3.0 6.0 53 54
r 2.116183 10 4 cbr 210 ------- 2 3.0 6.0 48 49
d 2.116183 4 5 cbr 210 ------- 2 3.0 6.0 48 49
+ 2.116351 5 11 cbr 210 ------- 2 3.0 6.0 28 29
- 2.116351 5 11 cbr 210 ------- 2 3.0 6.0 28 29
r 2.116534 11 6 cbr 210 ------- 2 3.0 6.0 23 24
h 2.118 3 10 cbr 210 ------- 2 3.0 6.0 59 60
+ 2.118 3 10 cbr 210 ------- 2 3.0 6.0 54 55
- 2.118 3 10 cbr 210 ------- 2 3.0 6.0 54 55
r 2.118183 10 4 cbr 210 ------- 2 3.0 6.0 49 50
d 2.118183 4 5 cbr 210 ------- 2 3.0 6.0 49 50
r 2.118351 4 5 cbr 210 ------- 2 3.0 6.0 34 35
h 2.118351 5 11 cbr 210 ------- 2 3.0 6.0 34 35
+ 2.118351 5 11 cbr 210 ------- 2 3.0 6.0 29 30
- 2.118351 5 11 cbr 210 ------- 2 3.0 6.0 29 30
h 2.12 3 10 cbr 210 ------- 2 3.0 6.0 60 61
+ 2.12 3 10 cbr 210 ------- 2 3.0 6.0 55 56
- 2.12 3 10 cbr 210 ------- 2 3.0 6.0 55 56
r 2.120183 10 4 cbr 210 ------- 2 3.0 6.0 50 51
d 2.120183 4 5 cbr 210 ------- 2 3.0 6.0 50 51
r 2.120351 4 5 cbr 210 ------- 2 3.0 6.0 35 36
h 2.120351 5 11 cbr 210 ------- 2 3.0 6.0 35 36
h 2.122 3 10 cbr 210 ------- 2 3.0 6.0 61 62
+ 2.122 3 10 cbr 210 ------- 2 3.0 6.0 56 57
- 2.122 3 10 cbr 210 ------- 2 3.0 6.0 56 57
r 2.122183 10 4 cbr 210 ------- 2 3.0 6.0 51 52
d 2.122183 4 5 cbr 210 ------- 2 3.0 6.0 51 52
r 2.122351 4 5 cbr 210 ------- 2 3.0 6.0 36 37
h 2.122351 5 11 cbr 210 ------- 2 3.0 6.0 36 37
r 2.122534 11 6 cbr 210 ------- 2 3.0 6.0 26 27
h 2.124 3 10 cbr 210 ------- 2 3.0 6.0 62 63
+ 2.124 3 10 cbr 210 ------- 2 3.0 6.0 57 58
- 2.124 3 10 cbr 210 ------- 2 3.0 6.0 57 58
r 2.124183 10 4 cbr 210 ------- 2 3.0 6.0 52 53
d 2.124183 4 5 cbr 210 ------- 2 3.0 6.0 52 53
r 2.124534 11 6 cbr 210 ------- 2 3.0 6.0 27 28
h 2.126 3 10 cbr 210 ------- 2 3.0 6.0 63 64
+ 2.126 3 10 cbr 210 ------- 2 3.0 6.0 58 59
- 2.126 3 10 cbr 210 ------- 2 3.0 6.0 58 59
r 2.126183 10 4 cbr 210 ------- 2 3.0 6.0 53 54
d 2.126183 4 5 cbr 210 ------- 2 3.0 6.0 53 54
r 2.126534 11 6 cbr 210 ------- 2 3.0 6.0 28 29
h 2.128 3 10 cbr 210 ------- 2 3.0 6.0 64 65
+ 2.128 3 10 cbr 210 ------- 2 3.0 6.0 59 60
- 2.128 3 10 cbr 210 ------- 2 3.0 6.0 59 60
r 2.128183 10 4 cbr 210 ------- 2 3.0 6.0 54 55
+ 2.128183 4 5 cbr 210 ------- 2 3.0 6.0 54 55
- 2.128183 4 5 cbr 210 ------- 2 3.0 6.0 54 55
+ 2.128351 5 11 cbr 210 ------- 2 3.0 6.0 34 35
- 2.128351 5 11 cbr 210 ------- 2 3.0 6.0 34 35
r 2.128534 11 6 cbr 210 ------- 2 3.0 6.0 29 30
h 2.13 3 10 cbr 210 ------- 2 3.0 6.0 65 66
+ 2.13 3 10 cbr 210 ------- 2 3.0 6.0 60 61
- 2.13 3 10 cbr 210 ------- 2 3.0 6.0 60 61
r 2.130183 10 4 cbr 210 ------- 2 3.0 6.0 55 56
+ 2.130183 4 5 cbr 210 ------- 2 3.0 6.0 55 56
- 2.130183 4 5 cbr 210 ------- 2 3.0 6.0 55 56
+ 2.130351 5 11 cbr 210 ------- 2 3.0 6.0 35 36
- 2.130351 5 11 cbr 210 ------- 2 3.0 6.0 35 36
h 2.132 3 10 cbr 210 ------- 2 3.0 6.0 66 67
+ 2.132 3 10 cbr 210 ------- 2 3.0 6.0 61 62
- 2.132 3 10 cbr 210 ------- 2 3.0 6.0 61 62
r 2.132183 10 4 cbr 210 ------- 2 3.0 6.0 56 57
+ 2.132183 4 5 cbr 210 ------- 2 3.0 6.0 56 57
- 2.132183 4 5 cbr 210 ------- 2 3.0 6.0 56 57
+ 2.132351 5 11 cbr 210 ------- 2 3.0 6.0 36 37
- 2.132351 5 11 cbr 210 ------- 2 3.0 6.0 36 37
h 2.134 3 10 cbr 210 ------- 2 3.0 6.0 67 68
+ 2.134 3 10 cbr 210 ------- 2 3.0 6.0 62 63
- 2.134 3 10 cbr 210 ------- 2 3.0 6.0 62 63
r 2.134183 10 4 cbr 210 ------- 2 3.0 6.0 57 58
d 2.134183 4 5 cbr 210 ------- 2 3.0 6.0 57 58
h 2.136 3 10 cbr 210 ------- 2 3.0 6.0 68 69
+ 2.136 3 10 cbr 210 ------- 2 3.0 6.0 63 64
- 2.136 3 10 cbr 210 ------- 2 3.0 6.0 63 64
r 2.136183 10 4 cbr 210 ------- 2 3.0 6.0 58 59
+ 2.136183 4 5 cbr 210 ------- 2 3.0 6.0 58 59
- 2.136183 4 5 cbr 210 ------- 2 3.0 6.0 58 59
r 2.136351 4 5 cbr 210 ------- 2 3.0 6.0 43 44
h 2.136351 5 11 cbr 210 ------- 2 3.0 6.0 43 44
h 2.138 3 10 cbr 210 ------- 2 3.0 6.0 69 70
+ 2.138 3 10 cbr 210 ------- 2 3.0 6.0 64 65
- 2.138 3 10 cbr 210 ------- 2 3.0 6.0 64 65
r 2.138183 10 4 cbr 210 ------- 2 3.0 6.0 59 60
d 2.138183 4 5 cbr 210 ------- 2 3.0 6.0 59 60
r 2.138534 11 6 cbr 210 ------- 2 3.0 6.0 34 35
h 2.14 3 10 cbr 210 ------- 2 3.0 6.0 70 71
+ 2.14 3 10 cbr 210 ------- 2 3.0 6.0 65 66
- 2.14 3 10 cbr 210 ------- 2 3.0 6.0 65 66
r 2.140183 10 4 cbr 210 ------- 2 3.0 6.0 60 61
+ 2.140183 4 5 cbr 210 ------- 2 3.0 6.0 60 61
- 2.140183 4 5 cbr 210 ------- 2 3.0 6.0 60 61
r 2.140351 4 5 cbr 210 ------- 2 3.0 6.0 45 46
h 2.140351 5 11 cbr 210 ------- 2 3.0 6.0 45 46
r 2.140534 11 6 cbr 210 ------- 2 3.0 6.0 35 36
h 2.142 3 10 cbr 210 ------- 2 3.0 6.0 71 72
+ 2.142 3 10 cbr 210 ------- 2 3.0 6.0 66 67
- 2.142 3 10 cbr 210 ------- 2 3.0 6.0 66 67
r 2.142183 10 4 cbr 210 ------- 2 3.0 6.0 61 62
d 2.142183 4 5 cbr 210 ------- 2 3.0 6.0 61 62
r 2.142534 11 6 cbr 210 ------- 2 3.0 6.0 36 37
h 2.144 3 10 cbr 210 ------- 2 3.0 6.0 72 73
+ 2.144 3 10 cbr 210 ------- 2 3.0 6.0 67 68
- 2.144 3 10 cbr 210 ------- 2 3.0 6.0 67 68
r 2.144183 10 4 cbr 210 ------- 2 3.0 6.0 62 63
d 2.144183 4 5 cbr 210 ------- 2 3.0 6.0 62 63
r 2.144351 4 5 cbr 210 ------- 2 3.0 6.0 47 48
h 2.144351 5 11 cbr 210 ------- 2 3.0 6.0 47 48
h 2.146 3 10 cbr 210 ------- 2 3.0 6.0 73 74
+ 2.146 3 10 cbr 210 ------- 2 3.0 6.0 68 69
- 2.146 3 10 cbr 210 ------- 2 3.0 6.0 68 69
r 2.146183 10 4 cbr 210 ------- 2 3.0 6.0 63 64
d 2.146183 4 5 cbr 210 ------- 2 3.0 6.0 63 64
+ 2.146351 5 11 cbr 210 ------- 2 3.0 6.0 43 44
- 2.146351 5 11 cbr 210 ------- 2 3.0 6.0 43 44
h 2.148 3 10 cbr 210 ------- 2 3.0 6.0 74 75
+ 2.148 3 10 cbr 210 ------- 2 3.0 6.0 69 70
- 2.148 3 10 cbr 210 ------- 2 3.0 6.0 69 70
r 2.148183 10 4 cbr 210 ------- 2 3.0 6.0 64 65
+ 2.148183 4 5 cbr 210 ------- 2 3.0 6.0 64 65
- 2.148183 4 5 cbr 210 ------- 2 3.0 6.0 64 65
h 2.15 3 10 cbr 210 ------- 2 3.0 6.0 75 76
+ 2.15 3 10 cbr 210 ------- 2 3.0 6.0 70 71
- 2.15 3 10 cbr 210 ------- 2 3.0 6.0 70 71
r 2.150183 10 4 cbr 210 ------- 2 3.0 6.0 65 66
d 2.150183 4 5 cbr 210 ------- 2 3.0 6.0 65 66
+ 2.150351 5 11 cbr 210 ------- 2 3.0 6.0 45 46
- 2.150351 5 11 cbr 210 ------- 2 3.0 6.0 45 46
h 2.152 3 10 cbr 210 ------- 2 3.0 6.0 76 77
+ 2.152 3 10 cbr 210 ------- 2 3.0 6.0 71 72
- 2.152 3 10 cbr 210 ------- 2 3.0 6.0 71 72
r 2.152183 10 4 cbr 210 ------- 2 3.0 6.0 66 67
+ 2.152183 4 5 cbr 210 ------- 2 3.0 6.0 66 67
- 2.152183 4 5 cbr 210 ------- 2 3.0 6.0 66 67
h 2.154 3 10 cbr 210 ------- 2 3.0 6.0 77 78
+ 2.154 3 10 cbr 210 ------- 2 3.0 6.0 72 73
- 2.154 3 10 cbr 210 ------- 2 3.0 6.0 72 73
r 2.154183 10 4 cbr 210 ------- 2 3.0 6.0 67 68
d 2.154183 4 5 cbr 210 ------- 2 3.0 6.0 67 68
+ 2.154351 5 11 cbr 210 ------- 2 3.0 6.0 47 48
- 2.154351 5 11 cbr 210 ------- 2 3.0 6.0 47 48
h 2.156 3 10 cbr 210 ------- 2 3.0 6.0 78 79
+ 2.156 3 10 cbr 210 ------- 2 3.0 6.0 73 74
- 2.156 3 10 cbr 210 ------- 2 3.0 6.0 73 74
r 2.156183 10 4 cbr 210 ------- 2 3.0 6.0 68 69
d 2.156183 4 5 cbr 210 ------- 2 3.0 6.0 68 69
r 2.156534 11 6 cbr 210 ------- 2 3.0 6.0 43 44
h 2.158 3 10 cbr 210 ------- 2 3.0 6.0 79 80
+ 2.158 3 10 cbr 210 ------- 2 3.0 6.0 74 75
- 2.158 3 10 cbr 210 ------- 2 3.0 6.0 74 75
r 2.158183 10 4 cbr 210 ------- 2 3.0 6.0 69 70
+ 2.158183 4 5 cbr 210 ------- 2 3.0 6.0 69 70
- 2.158183 4 5 cbr 210 ------- 2 3.0 6.0 69 70
r 2.158351 4 5 cbr 210 ------- 2 3.0 6.0 54 55
h 2.158351 5 11 cbr 210 ------- 2 3.0 6.0 54 55
h 2.16 3 10 cbr 210 ------- 2 3.0 6.0 80 81
+ 2.16 3 10 cbr 210 ------- 2 3.0 6.0 75 76
- 2.16 3 10 cbr 210 ------- 2 3.0 6.0 75 76
r 2.160183 10 4 cbr 210 ------- 2 3.0 6.0 70 71
+ 2.160183 4 5 cbr 210 ------- 2 3.0 6.0 70 71
- 2.160183 4 5 cbr 210 ------- 2 3.0 6.0 70 71
r 2.160351 4 5 cbr 210 ------- 2 3.0 6.0 55 56
h 2.160351 5 11 cbr 210 ------- 2 3.0 6.0 55 56
r 2.160534 11 6 cbr 210 ------- 2 3.0 6.0 45 46
h 2.162 3 10 cbr 210 ------- 2 3.0 6.0 81 82
+ 2.162 3 10 cbr 210 ------- 2 3.0 6.0 76 77
- 2.162 3 10 cbr 210 ------- 2 3.0 6.0 76 77
r 2.162183 10 4 cbr 210 ------- 2 3.0 6.0 71 72
+ 2.162183 4 5 cbr 210 ------- 2 3.0 6.0 71 72
- 2.162183 4 5 cbr 210 ------- 2 3.0 6.0 71 72
r 2.162351 4 5 cbr 210 ------- 2 3.0 6.0 56 57
h 2.162351 5 11 cbr 210 ------- 2 3.0 6.0 56 57
h 2.164 3 10 cbr 210 ------- 2 3.0 6.0 82 83
+ 2.164 3 10 cbr 210 ------- 2 3.0 6.0 77 78
- 2.164 3 10 cbr 210 ------- 2 3.0 6.0 77 78
r 2.164183 10 4 cbr 210 ------- 2 3.0 6.0 72 73
+ 2.164183 4 5 cbr 210 ------- 2 3.0 6.0 72 73
- 2.164183 4 5 cbr 210 ------- 2 3.0 6.0 72 73
r 2.164534 11 6 cbr 210 ------- 2 3.0 6.0 47 48
h 2.166 3 10 cbr 210 ------- 2 3.0 6.0 83 84
+ 2.166 3 10 cbr 210 ------- 2 3.0 6.0 78 79
- 2.166 3 10 cbr 210 ------- 2 3.0 6.0 78 79
r 2.166183 10 4 cbr 210 ------- 2 3.0 6.0 73 74
d 2.166183 4 5 cbr 210 ------- 2 3.0 6.0 73 74
r 2.166351 4 5 cbr 210 ------- 2 3.0 6.0 58 59
h 2.166351 5 11 cbr 210 ------- 2 3.0 6.0 58 59
h 2.168 3 10 cbr 210 ------- 2 3.0 6.0 84 85
+ 2.168 3 10 cbr 210 ------- 2 3.0 6.0 79 80
- 2.168 3 10 cbr 210 ------- 2 3.0 6.0 79 80
r 2.168183 10 4 cbr 210 ------- 2 3.0 6.0 74 75
+ 2.168183 4 5 cbr 210 ------- 2 3.0 6.0 74 75
- 2.168183 4 5 cbr 210 ------- 2 3.0 6.0 74 75
+ 2.168351 5 11 cbr 210 ------- 2 3.0 6.0 54 55
- 2.168351 5 11 cbr 210 ------- 2 3.0 6.0 54 55
h 2.17 3 10 cbr 210 ------- 2 3.0 6.0 85 86
+ 2.17 3 10 cbr 210 ------- 2 3.0 6.0 80 81
- 2.17 3 10 cbr 210 ------- 2 3.0 6.0 80 81
r 2.170183 10 4 cbr 210 ------- 2 3.0 6.0 75 76
+ 2.170183 4 5 cbr 210 ------- 2 3.0 6.0 75 76
- 2.170183 4 5 cbr 210 ------- 2 3.0 6.0 75 76
r 2.170351 4 5 cbr 210 ------- 2 3.0 6.0 60 61
h 2.170351 5 11 cbr 210 ------- 2 3.0 6.0 60 61
+ 2.170351 5 11 cbr 210 ------- 2 3.0 6.0 55 56
- 2.170351 5 11 cbr 210 ------- 2 3.0 6.0 55 56
h 2.172 3 10 cbr 210 ------- 2 3.0 6.0 86 87
+ 2.172 3 10 cbr 210 ------- 2 3.0 6.0 81 82
- 2.172 3 10 cbr 210 ------- 2 3.0 6.0 81 82
r 2.172183 10 4 cbr 210 ------- 2 3.0 6.0 76 77
d 2.172183 4 5 cbr 210 ------- 2 3.0 6.0 76 77
+ 2.172351 5 11 cbr 210 ------- 2 3.0 6.0 56 57
- 2.172351 5 11 cbr 210 ------- 2 3.0 6.0 56 57
h 2.174 3 10 cbr 210 ------- 2 3.0 6.0 87 88
+ 2.174 3 10 cbr 210 ------- 2 3.0 6.0 82 83
- 2.174 3 10 cbr 210 ------- 2 3.0 6.0 82 83
r 2.174183 10 4 cbr 210 ------- 2 3.0 6.0 77 78
d 2.174183 4 5 cbr 210 ------- 2 3.0 6.0 77 78
h 2.176 3 10 cbr 210 ------- 2 3.0 6.0 88 89
+ 2.176 3 10 cbr 210 ------- 2 3.0 6.0 83 84
- 2.176 3 10 cbr 210 ------- 2 3.0 6.0 83 84
r 2.176183 10 4 cbr 210 ------- 2 3.0 6.0 78 79
+ 2.176183 4 5 cbr 210 ------- 2 3.0 6.0 78 79
- 2.176183 4 5 cbr 210 ------- 2 3.0 6.0 78 79
+ 2.176351 5 11 cbr 210 ------- 2 3.0 6.0 58 59
- 2.176351 5 11 cbr 210 ------- 2 3.0 6.0 58 59
h 2.178 3 10 cbr 210 ------- 2 3.0 6.0 89 90
+ 2.178 3 10 cbr 210 ------- 2 3.0 6.0 84 85
- 2.178 3 10 cbr 210 ------- 2 3.0 6.0 84 85
r 2.178183 10 4 cbr 210 ------- 2 3.0 6.0 79 80
+ 2.178183 4 5 cbr 210 ------- 2 3.0 6.0 79 80
- 2.178183 4 5 cbr 210 ------- 2 3.0 6.0 79 80
r 2.178351 4 5 cbr 210 ------- 2 3.0 6.0 64 65
h 2.178351 5 11 cbr 210 ------- 2 3.0 6.0 64 65
r 2.178534 11 6 cbr 210 ------- 2 3.0 6.0 54 55
h 2.18 3 10 cbr 210 ------- 2 3.0 6.0 90 91
+ 2.18 3 10 cbr 210 ------- 2 3.0 6.0 85 86
- 2.18 3 10 cbr 210 ------- 2 3.0 6.0 85 86
r 2.180183 10 4 cbr 210 ------- 2 3.0 6.0 80 81
+ 2.180183 4 5 cbr 210 ------- 2 3.0 6.0 80 81
- 2.180183 4 5 cbr 210 ------- 2 3.0 6.0 80 81
+ 2.180351 5 11 cbr 210 ------- 2 3.0 6.0 60 61
- 2.180351 5 11 cbr 210 ------- 2 3.0 6.0 60 61
r 2.180534 11 6 cbr 210 ------- 2 3.0 6.0 55 56
h 2.182 3 10 cbr 210 ------- 2 3.0 6.0 91 92
+ 2.182 3 10 cbr 210 ------- 2 3.0 6.0 86 87
- 2.182 3 10 cbr 210 ------- 2 3.0 6.0 86 87
r 2.182183 10 4 cbr 210 ------- 2 3.0 6.0 81 82
d 2.182183 4 5 cbr 210 ------- 2 3.0 6.0 81 82
r 2.182351 4 5 cbr 210 ------- 2 3.0 6.0 66 67
h 2.182351 5 11 cbr 210 ------- 2 3.0 6.0 66 67
r 2.182534 11 6 cbr 210 ------- 2 3.0 6.0 56 57
h 2.184 3 10 cbr 210 ------- 2 3.0 6.0 92 93
+ 2.184 3 10 cbr 210 ------- 2 3.0 6.0 87 88
- 2.184 3 10 cbr 210 ------- 2 3.0 6.0 87 88
r 2.184183 10 4 cbr 210 ------- 2 3.0 6.0 82 83
d 2.184183 4 5 cbr 210 ------- 2 3.0 6.0 82 83
h 2.186 3 10 cbr 210 ------- 2 3.0 6.0 93 94
+ 2.186 3 10 cbr 210 ------- 2 3.0 6.0 88 89
- 2.186 3 10 cbr 210 ------- 2 3.0 6.0 88 89
r 2.186183 10 4 cbr 210 ------- 2 3.0 6.0 83 84
d 2.186183 4 5 cbr 210 ------- 2 3.0 6.0 83 84
r 2.186534 11 6 cbr 210 ------- 2 3.0 6.0 58 59
h 2.188 3 10 cbr 210 ------- 2 3.0 6.0 94 95
+ 2.188 3 10 cbr 210 ------- 2 3.0 6.0 89 90
- 2.188 3 10 cbr 210 ------- 2 3.0 6.0 89 90
r 2.188183 10 4 cbr 210 ------- 2 3.0 6.0 84 85
d 2.188183 4 5 cbr 210 ------- 2 3.0 6.0 84 85
r 2.188351 4 5 cbr 210 ------- 2 3.0 6.0 69 70
h 2.188351 5 11 cbr 210 ------- 2 3.0 6.0 69 70
+ 2.188351 5 11 cbr 210 ------- 2 3.0 6.0 64 65
- 2.188351 5 11 cbr 210 ------- 2 3.0 6.0 64 65
h 2.19 3 10 cbr 210 ------- 2 3.0 6.0 95 96
+ 2.19 3 10 cbr 210 ------- 2 3.0 6.0 90 91
- 2.19 3 10 cbr 210 ------- 2 3.0 6.0 90 91
r 2.190183 10 4 cbr 210 ------- 2 3.0 6.0 85 86
d 2.190183 4 5 cbr 210 ------- 2 3.0 6.0 85 86
r 2.190351 4 5 cbr 210 ------- 2 3.0 6.0 70 71
h 2.190351 5 11 cbr 210 ------- 2 3.0 6.0 70 71
r 2.190534 11 6 cbr 210 ------- 2 3.0 6.0 60 61
h 2.192 3 10 cbr 210 ------- 2 3.0 6.0 96 97
+ 2.192 3 10 cbr 210 ------- 2 3.0 6.0 91 92
- 2.192 3 10 cbr 210 ------- 2 3.0 6.0 91 92
r 2.192183 10 4 cbr 210 ------- 2 3.0 6.0 86 87
d 2.192183 4 5 cbr 210 ------- 2 3.0 6.0 86 87
r 2.192351 4 5 cbr 210 ------- 2 3.0 6.0 71 72
h 2.192351 5 11 cbr 210 ------- 2 3.0 6.0 71 72
+ 2.192351 5 11 cbr 210 ------- 2 3.0 6.0 66 67
- 2.192351 5 11 cbr 210 ------- 2 3.0 6.0 66 67
h 2.194 3 10 cbr 210 ------- 2 3.0 6.0 97 98
+ 2.194 3 10 cbr 210 ------- 2 3.0 6.0 92 93
- 2.194 3 10 cbr 210 ------- 2 3.0 6.0 92 93
r 2.194183 10 4 cbr 210 ------- 2 3.0 6.0 87 88
d 2.194183 4 5 cbr 210 ------- 2 3.0 6.0 87 88
r 2.194351 4 5 cbr 210 ------- 2 3.0 6.0 72 73
h 2.194351 5 11 cbr 210 ------- 2 3.0 6.0 72 73
h 2.196 3 10 cbr 210 ------- 2 3.0 6.0 98 99
+ 2.196 3 10 cbr 210 ------- 2 3.0 6.0 93 94
- 2.196 3 10 cbr 210 ------- 2 3.0 6.0 93 94
r 2.196183 10 4 cbr 210 ------- 2 3.0 6.0 88 89
+ 2.196183 4 5 cbr 210 ------- 2 3.0 6.0 88 89
- 2.196183 4 5 cbr 210 ------- 2 3.0 6.0 88 89
h 2.198 3 10 cbr 210 ------- 2 3.0 6.0 99 100
+ 2.198 3 10 cbr 210 ------- 2 3.0 6.0 94 95
- 2.198 3 10 cbr 210 ------- 2 3.0 6.0 94 95