+ 0.02 0 2 ping 64 ------- 1 0.0 4.0 -1 0
- 0.02 0 2 ping 64 ------- 1 0.0 4.0 -1 0
+ 0.02 1 2 ping 64 ------- 2 1.0 5.0 -1 1
- 0.02 1 2 ping 64 ------- 2 1.0 5.0 -1 1
+ 0.02 4 3 ping 64 ------- 3 4.0 0.0 -1 2
- 0.02 4 3 ping 64 ------- 3 4.0 0.0 -1 2
+ 0.02 5 3 ping 64 ------- 4 5.0 1.0 -1 3
- 0.02 5 3 ping 64 ------- 4 5.0 1.0 -1 3
+ 0.03 0 2 ping 64 ------- 1 0.0 4.0 -1 4
- 0.03 0 2 ping 64 ------- 1 0.0 4.0 -1 4
+ 0.03 1 2 ping 64 ------- 2 1.0 5.0 -1 5
- 0.03 1 2 ping 64 ------- 2 1.0 5.0 -1 5
+ 0.03 4 3 ping 64 ------- 3 4.0 0.0 -1 6
- 0.03 4 3 ping 64 ------- 3 4.0 0.0 -1 6
+ 0.03 5 3 ping 64 ------- 4 5.0 1.0 -1 7
- 0.03 5 3 ping 64 ------- 4 5.0 1.0 -1 7
r 0.030256 0 2 ping 64 ------- 1 0.0 4.0 -1 0
+ 0.030256 2 3 ping 64 ------- 1 0.0 4.0 -1 0
- 0.030256 2 3 ping 64 ------- 1 0.0 4.0 -1 0
r 0.030256 1 2 ping 64 ------- 2 1.0 5.0 -1 1
+ 0.030256 2 3 ping 64 ------- 2 1.0 5.0 -1 1
r 0.030256 4 3 ping 64 ------- 3 4.0 0.0 -1 2
+ 0.030256 3 2 ping 64 ------- 3 4.0 0.0 -1 2
- 0.030256 3 2 ping 64 ------- 3 4.0 0.0 -1 2
r 0.030256 5 3 ping 64 ------- 4 5.0 1.0 -1 3
+ 0.030256 3 2 ping 64 ------- 4 5.0 1.0 -1 3
- 0.030461 2 3 ping 64 ------- 2 1.0 5.0 -1 1
- 0.030461 3 2 ping 64 ------- 4 5.0 1.0 -1 3
+ 0.04 0 2 ping 64 ------- 1 0.0 4.0 -1 8
- 0.04 0 2 ping 64 ------- 1 0.0 4.0 -1 8
+ 0.04 1 2 ping 64 ------- 2 1.0 5.0 -1 9
- 0.04 1 2 ping 64 ------- 2 1.0 5.0 -1 9
+ 0.04 4 3 ping 64 ------- 3 4.0 0.0 -1 10
- 0.04 4 3 ping 64 ------- 3 4.0 0.0 -1 10
+ 0.04 5 3 ping 64 ------- 4 5.0 1.0 -1 11
- 0.04 5 3 ping 64 ------- 4 5.0 1.0 -1 11
r 0.040256 0 2 ping 64 ------- 1 0.0 4.0 -1 4
+ 0.040256 2 3 ping 64 ------- 1 0.0 4.0 -1 4
- 0.040256 2 3 ping 64 ------- 1 0.0 4.0 -1 4
r 0.040256 1 2 ping 64 ------- 2 1.0 5.0 -1 5
+ 0.040256 2 3 ping 64 ------- 2 1.0 5.0 -1 5
r 0.040256 4 3 ping 64 ------- 3 4.0 0.0 -1 6
+ 0.040256 3 2 ping 64 ------- 3 4.0 0.0 -1 6
- 0.040256 3 2 ping 64 ------- 3 4.0 0.0 -1 6
r 0.040256 5 3 ping 64 ------- 4 5.0 1.0 -1 7
+ 0.040256 3 2 ping 64 ------- 4 5.0 1.0 -1 7
- 0.040461 2 3 ping 64 ------- 2 1.0 5.0 -1 5
- 0.040461 3 2 ping 64 ------- 4 5.0 1.0 -1 7
+ 0.05 0 2 ping 64 ------- 1 0.0 4.0 -1 12
- 0.05 0 2 ping 64 ------- 1 0.0 4.0 -1 12
+ 0.05 1 2 ping 64 ------- 2 1.0 5.0 -1 13
- 0.05 1 2 ping 64 ------- 2 1.0 5.0 -1 13
+ 0.05 4 3 ping 64 ------- 3 4.0 0.0 -1 14
- 0.05 4 3 ping 64 ------- 3 4.0 0.0 -1 14
+ 0.05 5 3 ping 64 ------- 4 5.0 1.0 -1 15
- 0.05 5 3 ping 64 ------- 4 5.0 1.0 -1 15
r 0.050256 0 2 ping 64 ------- 1 0.0 4.0 -1 8
+ 0.050256 2 3 ping 64 ------- 1 0.0 4.0 -1 8
- 0.050256 2 3 ping 64 ------- 1 0.0 4.0 -1 8
r 0.050256 1 2 ping 64 ------- 2 1.0 5.0 -1 9
+ 0.050256 2 3 ping 64 ------- 2 1.0 5.0 -1 9
r 0.050256 4 3 ping 64 ------- 3 4.0 0.0 -1 10
+ 0.050256 3 2 ping 64 ------- 3 4.0 0.0 -1 10
- 0.050256 3 2 ping 64 ------- 3 4.0 0.0 -1 10
r 0.050256 5 3 ping 64 ------- 4 5.0 1.0 -1 11
+ 0.050256 3 2 ping 64 ------- 4 5.0 1.0 -1 11
r 0.050461 2 3 ping 64 ------- 1 0.0 4.0 -1 0
+ 0.050461 3 4 ping 64 ------- 1 0.0 4.0 -1 0
- 0.050461 3 4 ping 64 ------- 1 0.0 4.0 -1 0
r 0.050461 3 2 ping 64 ------- 3 4.0 0.0 -1 2
+ 0.050461 2 0 ping 64 ------- 3 4.0 0.0 -1 2
- 0.050461 2 0 ping 64 ------- 3 4.0 0.0 -1 2
- 0.050461 2 3 ping 64 ------- 2 1.0 5.0 -1 9
- 0.050461 3 2 ping 64 ------- 4 5.0 1.0 -1 11
r 0.050666 2 3 ping 64 ------- 2 1.0 5.0 -1 1
+ 0.050666 3 5 ping 64 ------- 2 1.0 5.0 -1 1
- 0.050666 3 5 ping 64 ------- 2 1.0 5.0 -1 1
r 0.050666 3 2 ping 64 ------- 4 5.0 1.0 -1 3
+ 0.050666 2 1 ping 64 ------- 4 5.0 1.0 -1 3
- 0.050666 2 1 ping 64 ------- 4 5.0 1.0 -1 3
+ 0.06 0 2 ping 64 ------- 1 0.0 4.0 -1 16
- 0.06 0 2 ping 64 ------- 1 0.0 4.0 -1 16
+ 0.06 1 2 ping 64 ------- 2 1.0 5.0 -1 17
- 0.06 1 2 ping 64 ------- 2 1.0 5.0 -1 17
+ 0.06 4 3 ping 64 ------- 3 4.0 0.0 -1 18
- 0.06 4 3 ping 64 ------- 3 4.0 0.0 -1 18
+ 0.06 5 3 ping 64 ------- 4 5.0 1.0 -1 19
- 0.06 5 3 ping 64 ------- 4 5.0 1.0 -1 19
r 0.060256 0 2 ping 64 ------- 1 0.0 4.0 -1 12
+ 0.060256 2 3 ping 64 ------- 1 0.0 4.0 -1 12
- 0.060256 2 3 ping 64 ------- 1 0.0 4.0 -1 12
r 0.060256 1 2 ping 64 ------- 2 1.0 5.0 -1 13
+ 0.060256 2 3 ping 64 ------- 2 1.0 5.0 -1 13
r 0.060256 4 3 ping 64 ------- 3 4.0 0.0 -1 14
+ 0.060256 3 2 ping 64 ------- 3 4.0 0.0 -1 14
- 0.060256 3 2 ping 64 ------- 3 4.0 0.0 -1 14
r 0.060256 5 3 ping 64 ------- 4 5.0 1.0 -1 15
+ 0.060256 3 2 ping 64 ------- 4 5.0 1.0 -1 15
r 0.060461 2 3 ping 64 ------- 1 0.0 4.0 -1 4
+ 0.060461 3 4 ping 64 ------- 1 0.0 4.0 -1 4
- 0.060461 3 4 ping 64 ------- 1 0.0 4.0 -1 4
r 0.060461 3 2 ping 64 ------- 3 4.0 0.0 -1 6
+ 0.060461 2 0 ping 64 ------- 3 4.0 0.0 -1 6
- 0.060461 2 0 ping 64 ------- 3 4.0 0.0 -1 6
- 0.060461 2 3 ping 64 ------- 2 1.0 5.0 -1 13
- 0.060461 3 2 ping 64 ------- 4 5.0 1.0 -1 15
r 0.060666 2 3 ping 64 ------- 2 1.0 5.0 -1 5
+ 0.060666 3 5 ping 64 ------- 2 1.0 5.0 -1 5
- 0.060666 3 5 ping 64 ------- 2 1.0 5.0 -1 5
r 0.060666 3 2 ping 64 ------- 4 5.0 1.0 -1 7
+ 0.060666 2 1 ping 64 ------- 4 5.0 1.0 -1 7
- 0.060666 2 1 ping 64 ------- 4 5.0 1.0 -1 7
r 0.060717 3 4 ping 64 ------- 1 0.0 4.0 -1 0
+ 0.060717 4 3 ping 64 ------- 3 4.0 0.0 -1 20
- 0.060717 4 3 ping 64 ------- 3 4.0 0.0 -1 20
r 0.060717 2 0 ping 64 ------- 3 4.0 0.0 -1 2
+ 0.060717 0 2 ping 64 ------- 1 0.0 4.0 -1 21
- 0.060717 0 2 ping 64 ------- 1 0.0 4.0 -1 21
r 0.060922 3 5 ping 64 ------- 2 1.0 5.0 -1 1
+ 0.060922 5 3 ping 64 ------- 4 5.0 1.0 -1 22
- 0.060922 5 3 ping 64 ------- 4 5.0 1.0 -1 22
r 0.060922 2 1 ping 64 ------- 4 5.0 1.0 -1 3
+ 0.060922 1 2 ping 64 ------- 2 1.0 5.0 -1 23
- 0.060922 1 2 ping 64 ------- 2 1.0 5.0 -1 23
+ 0.07 0 2 ping 64 ------- 1 0.0 4.0 -1 24
- 0.07 0 2 ping 64 ------- 1 0.0 4.0 -1 24
+ 0.07 1 2 ping 64 ------- 2 1.0 5.0 -1 25
- 0.07 1 2 ping 64 ------- 2 1.0 5.0 -1 25
+ 0.07 4 3 ping 64 ------- 3 4.0 0.0 -1 26
- 0.07 4 3 ping 64 ------- 3 4.0 0.0 -1 26
+ 0.07 5 3 ping 64 ------- 4 5.0 1.0 -1 27
- 0.07 5 3 ping 64 ------- 4 5.0 1.0 -1 27
r 0.070256 0 2 ping 64 ------- 1 0.0 4.0 -1 16
+ 0.070256 2 3 ping 64 ------- 1 0.0 4.0 -1 16
- 0.070256 2 3 ping 64 ------- 1 0.0 4.0 -1 16
r 0.070256 1 2 ping 64 ------- 2 1.0 5.0 -1 17
+ 0.070256 2 3 ping 64 ------- 2 1.0 5.0 -1 17
r 0.070256 4 3 ping 64 ------- 3 4.0 0.0 -1 18
+ 0.070256 3 2 ping 64 ------- 3 4.0 0.0 -1 18
- 0.070256 3 2 ping 64 ------- 3 4.0 0.0 -1 18
r 0.070256 5 3 ping 64 ------- 4 5.0 1.0 -1 19
+ 0.070256 3 2 ping 64 ------- 4 5.0 1.0 -1 19
r 0.070461 2 3 ping 64 ------- 1 0.0 4.0 -1 8
+ 0.070461 3 4 ping 64 ------- 1 0.0 4.0 -1 8
- 0.070461 3 4 ping 64 ------- 1 0.0 4.0 -1 8
r 0.070461 3 2 ping 64 ------- 3 4.0 0.0 -1 10
+ 0.070461 2 0 ping 64 ------- 3 4.0 0.0 -1 10
- 0.070461 2 0 ping 64 ------- 3 4.0 0.0 -1 10
- 0.070461 2 3 ping 64 ------- 2 1.0 5.0 -1 17
- 0.070461 3 2 ping 64 ------- 4 5.0 1.0 -1 19
r 0.070666 2 3 ping 64 ------- 2 1.0 5.0 -1 9
+ 0.070666 3 5 ping 64 ------- 2 1.0 5.0 -1 9
- 0.070666 3 5 ping 64 ------- 2 1.0 5.0 -1 9
r 0.070666 3 2 ping 64 ------- 4 5.0 1.0 -1 11
+ 0.070666 2 1 ping 64 ------- 4 5.0 1.0 -1 11
- 0.070666 2 1 ping 64 ------- 4 5.0 1.0 -1 11
r 0.070717 3 4 ping 64 ------- 1 0.0 4.0 -1 4
+ 0.070717 4 3 ping 64 ------- 3 4.0 0.0 -1 28
- 0.070717 4 3 ping 64 ------- 3 4.0 0.0 -1 28
r 0.070717 2 0 ping 64 ------- 3 4.0 0.0 -1 6
+ 0.070717 0 2 ping 64 ------- 1 0.0 4.0 -1 29
- 0.070717 0 2 ping 64 ------- 1 0.0 4.0 -1 29
r 0.070922 3 5 ping 64 ------- 2 1.0 5.0 -1 5
+ 0.070922 5 3 ping 64 ------- 4 5.0 1.0 -1 30
- 0.070922 5 3 ping 64 ------- 4 5.0 1.0 -1 30
r 0.070922 2 1 ping 64 ------- 4 5.0 1.0 -1 7
+ 0.070922 1 2 ping 64 ------- 2 1.0 5.0 -1 31
- 0.070922 1 2 ping 64 ------- 2 1.0 5.0 -1 31
r 0.070973 4 3 ping 64 ------- 3 4.0 0.0 -1 20
+ 0.070973 3 2 ping 64 ------- 3 4.0 0.0 -1 20
- 0.070973 3 2 ping 64 ------- 3 4.0 0.0 -1 20
r 0.070973 0 2 ping 64 ------- 1 0.0 4.0 -1 21
+ 0.070973 2 3 ping 64 ------- 1 0.0 4.0 -1 21
- 0.070973 2 3 ping 64 ------- 1 0.0 4.0 -1 21
r 0.071178 5 3 ping 64 ------- 4 5.0 1.0 -1 22
+ 0.071178 3 2 ping 64 ------- 4 5.0 1.0 -1 22
r 0.071178 1 2 ping 64 ------- 2 1.0 5.0 -1 23
+ 0.071178 2 3 ping 64 ------- 2 1.0 5.0 -1 23
- 0.071178 3 2 ping 64 ------- 4 5.0 1.0 -1 22
- 0.071178 2 3 ping 64 ------- 2 1.0 5.0 -1 23
+ 0.08 0 2 ping 64 ------- 1 0.0 4.0 -1 32
- 0.08 0 2 ping 64 ------- 1 0.0 4.0 -1 32
+ 0.08 1 2 ping 64 ------- 2 1.0 5.0 -1 33
- 0.08 1 2 ping 64 ------- 2 1.0 5.0 -1 33
+ 0.08 4 3 ping 64 ------- 3 4.0 0.0 -1 34
- 0.08 4 3 ping 64 ------- 3 4.0 0.0 -1 34
+ 0.08 5 3 ping 64 ------- 4 5.0 1.0 -1 35
- 0.08 5 3 ping 64 ------- 4 5.0 1.0 -1 35
r 0.080256 0 2 ping 64 ------- 1 0.0 4.0 -1 24
+ 0.080256 2 3 ping 64 ------- 1 0.0 4.0 -1 24
- 0.080256 2 3 ping 64 ------- 1 0.0 4.0 -1 24
r 0.080256 1 2 ping 64 ------- 2 1.0 5.0 -1 25
+ 0.080256 2 3 ping 64 ------- 2 1.0 5.0 -1 25
r 0.080256 4 3 ping 64 ------- 3 4.0 0.0 -1 26
+ 0.080256 3 2 ping 64 ------- 3 4.0 0.0 -1 26
- 0.080256 3 2 ping 64 ------- 3 4.0 0.0 -1 26
r 0.080256 5 3 ping 64 ------- 4 5.0 1.0 -1 27
+ 0.080256 3 2 ping 64 ------- 4 5.0 1.0 -1 27
r 0.080461 2 3 ping 64 ------- 1 0.0 4.0 -1 12
+ 0.080461 3 4 ping 64 ------- 1 0.0 4.0 -1 12
- 0.080461 3 4 ping 64 ------- 1 0.0 4.0 -1 12
r 0.080461 3 2 ping 64 ------- 3 4.0 0.0 -1 14
+ 0.080461 2 0 ping 64 ------- 3 4.0 0.0 -1 14
- 0.080461 2 0 ping 64 ------- 3 4.0 0.0 -1 14
- 0.080461 2 3 ping 64 ------- 2 1.0 5.0 -1 25
- 0.080461 3 2 ping 64 ------- 4 5.0 1.0 -1 27
r 0.080666 2 3 ping 64 ------- 2 1.0 5.0 -1 13
+ 0.080666 3 5 ping 64 ------- 2 1.0 5.0 -1 13
- 0.080666 3 5 ping 64 ------- 2 1.0 5.0 -1 13
r 0.080666 3 2 ping 64 ------- 4 5.0 1.0 -1 15
+ 0.080666 2 1 ping 64 ------- 4 5.0 1.0 -1 15
- 0.080666 2 1 ping 64 ------- 4 5.0 1.0 -1 15
r 0.080717 3 4 ping 64 ------- 1 0.0 4.0 -1 8
+ 0.080717 4 3 ping 64 ------- 3 4.0 0.0 -1 36
- 0.080717 4 3 ping 64 ------- 3 4.0 0.0 -1 36
r 0.080717 2 0 ping 64 ------- 3 4.0 0.0 -1 10
+ 0.080717 0 2 ping 64 ------- 1 0.0 4.0 -1 37
- 0.080717 0 2 ping 64 ------- 1 0.0 4.0 -1 37
r 0.080922 3 5 ping 64 ------- 2 1.0 5.0 -1 9
+ 0.080922 5 3 ping 64 ------- 4 5.0 1.0 -1 38
- 0.080922 5 3 ping 64 ------- 4 5.0 1.0 -1 38
r 0.080922 2 1 ping 64 ------- 4 5.0 1.0 -1 11
+ 0.080922 1 2 ping 64 ------- 2 1.0 5.0 -1 39
- 0.080922 1 2 ping 64 ------- 2 1.0 5.0 -1 39
r 0.080973 4 3 ping 64 ------- 3 4.0 0.0 -1 28
+ 0.080973 3 2 ping 64 ------- 3 4.0 0.0 -1 28
- 0.080973 3 2 ping 64 ------- 3 4.0 0.0 -1 28
r 0.080973 0 2 ping 64 ------- 1 0.0 4.0 -1 29
+ 0.080973 2 3 ping 64 ------- 1 0.0 4.0 -1 29
- 0.080973 2 3 ping 64 ------- 1 0.0 4.0 -1 29
r 0.081178 5 3 ping 64 ------- 4 5.0 1.0 -1 30
+ 0.081178 3 2 ping 64 ------- 4 5.0 1.0 -1 30
r 0.081178 1 2 ping 64 ------- 2 1.0 5.0 -1 31
+ 0.081178 2 3 ping 64 ------- 2 1.0 5.0 -1 31
- 0.081178 3 2 ping 64 ------- 4 5.0 1.0 -1 30
- 0.081178 2 3 ping 64 ------- 2 1.0 5.0 -1 31
+ 0.09 0 2 ping 64 ------- 1 0.0 4.0 -1 40
- 0.09 0 2 ping 64 ------- 1 0.0 4.0 -1 40
+ 0.09 1 2 ping 64 ------- 2 1.0 5.0 -1 41
- 0.09 1 2 ping 64 ------- 2 1.0 5.0 -1 41
+ 0.09 4 3 ping 64 ------- 3 4.0 0.0 -1 42
- 0.09 4 3 ping 64 ------- 3 4.0 0.0 -1 42
+ 0.09 5 3 ping 64 ------- 4 5.0 1.0 -1 43
- 0.09 5 3 ping 64 ------- 4 5.0 1.0 -1 43
r 0.090256 0 2 ping 64 ------- 1 0.0 4.0 -1 32
+ 0.090256 2 3 ping 64 ------- 1 0.0 4.0 -1 32
- 0.090256 2 3 ping 64 ------- 1 0.0 4.0 -1 32
r 0.090256 1 2 ping 64 ------- 2 1.0 5.0 -1 33
+ 0.090256 2 3 ping 64 ------- 2 1.0 5.0 -1 33
r 0.090256 4 3 ping 64 ------- 3 4.0 0.0 -1 34
+ 0.090256 3 2 ping 64 ------- 3 4.0 0.0 -1 34
- 0.090256 3 2 ping 64 ------- 3 4.0 0.0 -1 34
r 0.090256 5 3 ping 64 ------- 4 5.0 1.0 -1 35
+ 0.090256 3 2 ping 64 ------- 4 5.0 1.0 -1 35
r 0.090461 2 3 ping 64 ------- 1 0.0 4.0 -1 16
+ 0.090461 3 4 ping 64 ------- 1 0.0 4.0 -1 16
- 0.090461 3 4 ping 64 ------- 1 0.0 4.0 -1 16
r 0.090461 3 2 ping 64 ------- 3 4.0 0.0 -1 18
+ 0.090461 2 0 ping 64 ------- 3 4.0 0.0 -1 18
- 0.090461 2 0 ping 64 ------- 3 4.0 0.0 -1 18
- 0.090461 2 3 ping 64 ------- 2 1.0 5.0 -1 33
- 0.090461 3 2 ping 64 ------- 4 5.0 1.0 -1 35
r 0.090666 2 3 ping 64 ------- 2 1.0 5.0 -1 17
+ 0.090666 3 5 ping 64 ------- 2 1.0 5.0 -1 17
- 0.090666 3 5 ping 64 ------- 2 1.0 5.0 -1 17
r 0.090666 3 2 ping 64 ------- 4 5.0 1.0 -1 19
+ 0.090666 2 1 ping 64 ------- 4 5.0 1.0 -1 19
- 0.090666 2 1 ping 64 ------- 4 5.0 1.0 -1 19
r 0.090717 3 4 ping 64 ------- 1 0.0 4.0 -1 12
+ 0.090717 4 3 ping 64 ------- 3 4.0 0.0 -1 44
- 0.090717 4 3 ping 64 ------- 3 4.0 0.0 -1 44
r 0.090717 2 0 ping 64 ------- 3 4.0 0.0 -1 14
+ 0.090717 0 2 ping 64 ------- 1 0.0 4.0 -1 45
- 0.090717 0 2 ping 64 ------- 1 0.0 4.0 -1 45
r 0.090922 3 5 ping 64 ------- 2 1.0 5.0 -1 13
+ 0.090922 5 3 ping 64 ------- 4 5.0 1.0 -1 46
- 0.090922 5 3 ping 64 ------- 4 5.0 1.0 -1 46
r 0.090922 2 1 ping 64 ------- 4 5.0 1.0 -1 15
+ 0.090922 1 2 ping 64 ------- 2 1.0 5.0 -1 47
- 0.090922 1 2 ping 64 ------- 2 1.0 5.0 -1 47
r 0.090973 4 3 ping 64 ------- 3 4.0 0.0 -1 36
+ 0.090973 3 2 ping 64 ------- 3 4.0 0.0 -1 36
- 0.090973 3 2 ping 64 ------- 3 4.0 0.0 -1 36
r 0.090973 0 2 ping 64 ------- 1 0.0 4.0 -1 37
+ 0.090973 2 3 ping 64 ------- 1 0.0 4.0 -1 37
- 0.090973 2 3 ping 64 ------- 1 0.0 4.0 -1 37
r 0.091178 3 2 ping 64 ------- 3 4.0 0.0 -1 20
+ 0.091178 2 0 ping 64 ------- 3 4.0 0.0 -1 20
- 0.091178 2 0 ping 64 ------- 3 4.0 0.0 -1 20
r 0.091178 2 3 ping 64 ------- 1 0.0 4.0 -1 21
+ 0.091178 3 4 ping 64 ------- 1 0.0 4.0 -1 21
- 0.091178 3 4 ping 64 ------- 1 0.0 4.0 -1 21
r 0.091178 5 3 ping 64 ------- 4 5.0 1.0 -1 38
+ 0.091178 3 2 ping 64 ------- 4 5.0 1.0 -1 38
r 0.091178 1 2 ping 64 ------- 2 1.0 5.0 -1 39
+ 0.091178 2 3 ping 64 ------- 2 1.0 5.0 -1 39
- 0.091178 3 2 ping 64 ------- 4 5.0 1.0 -1 38
- 0.091178 2 3 ping 64 ------- 2 1.0 5.0 -1 39
r 0.091382 3 2 ping 64 ------- 4 5.0 1.0 -1 22
+ 0.091382 2 1 ping 64 ------- 4 5.0 1.0 -1 22
- 0.091382 2 1 ping 64 ------- 4 5.0 1.0 -1 22
r 0.091382 2 3 ping 64 ------- 2 1.0 5.0 -1 23
+ 0.091382 3 5 ping 64 ------- 2 1.0 5.0 -1 23
- 0.091382 3 5 ping 64 ------- 2 1.0 5.0 -1 23
+ 0.1 0 2 ping 64 ------- 1 0.0 4.0 -1 48
- 0.1 0 2 ping 64 ------- 1 0.0 4.0 -1 48
+ 0.1 1 2 ping 64 ------- 2 1.0 5.0 -1 49
- 0.1 1 2 ping 64 ------- 2 1.0 5.0 -1 49
+ 0.1 4 3 ping 64 ------- 3 4.0 0.0 -1 50
- 0.1 4 3 ping 64 ------- 3 4.0 0.0 -1 50
+ 0.1 5 3 ping 64 ------- 4 5.0 1.0 -1 51
- 0.1 5 3 ping 64 ------- 4 5.0 1.0 -1 51
r 0.100256 0 2 ping 64 ------- 1 0.0 4.0 -1 40
+ 0.100256 2 3 ping 64 ------- 1 0.0 4.0 -1 40
- 0.100256 2 3 ping 64 ------- 1 0.0 4.0 -1 40
r 0.100256 1 2 ping 64 ------- 2 1.0 5.0 -1 41
+ 0.100256 2 3 ping 64 ------- 2 1.0 5.0 -1 41
r 0.100256 4 3 ping 64 ------- 3 4.0 0.0 -1 42
+ 0.100256 3 2 ping 64 ------- 3 4.0 0.0 -1 42
- 0.100256 3 2 ping 64 ------- 3 4.0 0.0 -1 42
r 0.100256 5 3 ping 64 ------- 4 5.0 1.0 -1 43
+ 0.100256 3 2 ping 64 ------- 4 5.0 1.0 -1 43
- 0.100461 2 3 ping 64 ------- 2 1.0 5.0 -1 41
- 0.100461 3 2 ping 64 ------- 4 5.0 1.0 -1 43
r 0.100461 2 3 ping 64 ------- 1 0.0 4.0 -1 24
+ 0.100461 3 4 ping 64 ------- 1 0.0 4.0 -1 24
- 0.100461 3 4 ping 64 ------- 1 0.0 4.0 -1 24
r 0.100461 3 2 ping 64 ------- 3 4.0 0.0 -1 26
+ 0.100461 2 0 ping 64 ------- 3 4.0 0.0 -1 26
- 0.100461 2 0 ping 64 ------- 3 4.0 0.0 -1 26
r 0.100666 2 3 ping 64 ------- 2 1.0 5.0 -1 25
+ 0.100666 3 5 ping 64 ------- 2 1.0 5.0 -1 25
- 0.100666 3 5 ping 64 ------- 2 1.0 5.0 -1 25
r 0.100666 3 2 ping 64 ------- 4 5.0 1.0 -1 27
+ 0.100666 2 1 ping 64 ------- 4 5.0 1.0 -1 27
- 0.100666 2 1 ping 64 ------- 4 5.0 1.0 -1 27
r 0.100717 3 4 ping 64 ------- 1 0.0 4.0 -1 16
+ 0.100717 4 3 ping 64 ------- 3 4.0 0.0 -1 52
- 0.100717 4 3 ping 64 ------- 3 4.0 0.0 -1 52
r 0.100717 2 0 ping 64 ------- 3 4.0 0.0 -1 18
+ 0.100717 0 2 ping 64 ------- 1 0.0 4.0 -1 53
- 0.100717 0 2 ping 64 ------- 1 0.0 4.0 -1 53
r 0.100922 3 5 ping 64 ------- 2 1.0 5.0 -1 17
+ 0.100922 5 3 ping 64 ------- 4 5.0 1.0 -1 54
- 0.100922 5 3 ping 64 ------- 4 5.0 1.0 -1 54
r 0.100922 2 1 ping 64 ------- 4 5.0 1.0 -1 19
+ 0.100922 1 2 ping 64 ------- 2 1.0 5.0 -1 55
- 0.100922 1 2 ping 64 ------- 2 1.0 5.0 -1 55
r 0.100973 4 3 ping 64 ------- 3 4.0 0.0 -1 44
+ 0.100973 3 2 ping 64 ------- 3 4.0 0.0 -1 44
- 0.100973 3 2 ping 64 ------- 3 4.0 0.0 -1 44
r 0.100973 0 2 ping 64 ------- 1 0.0 4.0 -1 45
+ 0.100973 2 3 ping 64 ------- 1 0.0 4.0 -1 45
- 0.100973 2 3 ping 64 ------- 1 0.0 4.0 -1 45
r 0.101178 3 2 ping 64 ------- 3 4.0 0.0 -1 28
+ 0.101178 2 0 ping 64 ------- 3 4.0 0.0 -1 28
- 0.101178 2 0 ping 64 ------- 3 4.0 0.0 -1 28
r 0.101178 2 3 ping 64 ------- 1 0.0 4.0 -1 29
+ 0.101178 3 4 ping 64 ------- 1 0.0 4.0 -1 29
- 0.101178 3 4 ping 64 ------- 1 0.0 4.0 -1 29
r 0.101178 5 3 ping 64 ------- 4 5.0 1.0 -1 46
+ 0.101178 3 2 ping 64 ------- 4 5.0 1.0 -1 46
r 0.101178 1 2 ping 64 ------- 2 1.0 5.0 -1 47
+ 0.101178 2 3 ping 64 ------- 2 1.0 5.0 -1 47
- 0.101178 3 2 ping 64 ------- 4 5.0 1.0 -1 46
- 0.101178 2 3 ping 64 ------- 2 1.0 5.0 -1 47
r 0.101382 3 2 ping 64 ------- 4 5.0 1.0 -1 30
+ 0.101382 2 1 ping 64 ------- 4 5.0 1.0 -1 30
- 0.101382 2 1 ping 64 ------- 4 5.0 1.0 -1 30
r 0.101382 2 3 ping 64 ------- 2 1.0 5.0 -1 31
+ 0.101382 3 5 ping 64 ------- 2 1.0 5.0 -1 31
- 0.101382 3 5 ping 64 ------- 2 1.0 5.0 -1 31
r 0.101434 2 0 ping 64 ------- 3 4.0 0.0 -1 20
r 0.101434 3 4 ping 64 ------- 1 0.0 4.0 -1 21
r 0.101638 2 1 ping 64 ------- 4 5.0 1.0 -1 22
r 0.101638 3 5 ping 64 ------- 2 1.0 5.0 -1 23
+ 0.11 0 2 ping 64 ------- 1 0.0 4.0 -1 56
- 0.11 0 2 ping 64 ------- 1 0.0 4.0 -1 56
+ 0.11 1 2 ping 64 ------- 2 1.0 5.0 -1 57
- 0.11 1 2 ping 64 ------- 2 1.0 5.0 -1 57
+ 0.11 4 3 ping 64 ------- 3 4.0 0.0 -1 58
- 0.11 4 3 ping 64 ------- 3 4.0 0.0 -1 58
+ 0.11 5 3 ping 64 ------- 4 5.0 1.0 -1 59
- 0.11 5 3 ping 64 ------- 4 5.0 1.0 -1 59
r 0.110256 0 2 ping 64 ------- 1 0.0 4.0 -1 48
+ 0.110256 2 3 ping 64 ------- 1 0.0 4.0 -1 48
- 0.110256 2 3 ping 64 ------- 1 0.0 4.0 -1 48
r 0.110256 1 2 ping 64 ------- 2 1.0 5.0 -1 49
+ 0.110256 2 3 ping 64 ------- 2 1.0 5.0 -1 49
r 0.110256 4 3 ping 64 ------- 3 4.0 0.0 -1 50
+ 0.110256 3 2 ping 64 ------- 3 4.0 0.0 -1 50
- 0.110256 3 2 ping 64 ------- 3 4.0 0.0 -1 50
r 0.110256 5 3 ping 64 ------- 4 5.0 1.0 -1 51
+ 0.110256 3 2 ping 64 ------- 4 5.0 1.0 -1 51
r 0.110461 2 3 ping 64 ------- 1 0.0 4.0 -1 32
+ 0.110461 3 4 ping 64 ------- 1 0.0 4.0 -1 32
- 0.110461 3 4 ping 64 ------- 1 0.0 4.0 -1 32
r 0.110461 3 2 ping 64 ------- 3 4.0 0.0 -1 34
+ 0.110461 2 0 ping 64 ------- 3 4.0 0.0 -1 34
- 0.110461 2 0 ping 64 ------- 3 4.0 0.0 -1 34
- 0.110461 2 3 ping 64 ------- 2 1.0 5.0 -1 49
- 0.110461 3 2 ping 64 ------- 4 5.0 1.0 -1 51
r 0.110666 2 3 ping 64 ------- 2 1.0 5.0 -1 33
+ 0.110666 3 5 ping 64 ------- 2 1.0 5.0 -1 33
- 0.110666 3 5 ping 64 ------- 2 1.0 5.0 -1 33
r 0.110666 3 2 ping 64 ------- 4 5.0 1.0 -1 35
+ 0.110666 2 1 ping 64 ------- 4 5.0 1.0 -1 35
- 0.110666 2 1 ping 64 ------- 4 5.0 1.0 -1 35
r 0.110717 3 4 ping 64 ------- 1 0.0 4.0 -1 24
+ 0.110717 4 3 ping 64 ------- 3 4.0 0.0 -1 60
- 0.110717 4 3 ping 64 ------- 3 4.0 0.0 -1 60
r 0.110717 2 0 ping 64 ------- 3 4.0 0.0 -1 26
+ 0.110717 0 2 ping 64 ------- 1 0.0 4.0 -1 61
- 0.110717 0 2 ping 64 ------- 1 0.0 4.0 -1 61
r 0.110922 3 5 ping 64 ------- 2 1.0 5.0 -1 25
+ 0.110922 5 3 ping 64 ------- 4 5.0 1.0 -1 62
- 0.110922 5 3 ping 64 ------- 4 5.0 1.0 -1 62
r 0.110922 2 1 ping 64 ------- 4 5.0 1.0 -1 27
+ 0.110922 1 2 ping 64 ------- 2 1.0 5.0 -1 63
- 0.110922 1 2 ping 64 ------- 2 1.0 5.0 -1 63
r 0.110973 4 3 ping 64 ------- 3 4.0 0.0 -1 52
+ 0.110973 3 2 ping 64 ------- 3 4.0 0.0 -1 52
- 0.110973 3 2 ping 64 ------- 3 4.0 0.0 -1 52
r 0.110973 0 2 ping 64 ------- 1 0.0 4.0 -1 53
+ 0.110973 2 3 ping 64 ------- 1 0.0 4.0 -1 53
- 0.110973 2 3 ping 64 ------- 1 0.0 4.0 -1 53
r 0.111178 3 2 ping 64 ------- 3 4.0 0.0 -1 36
+ 0.111178 2 0 ping 64 ------- 3 4.0 0.0 -1 36
- 0.111178 2 0 ping 64 ------- 3 4.0 0.0 -1 36
r 0.111178 2 3 ping 64 ------- 1 0.0 4.0 -1 37
+ 0.111178 3 4 ping 64 ------- 1 0.0 4.0 -1 37
- 0.111178 3 4 ping 64 ------- 1 0.0 4.0 -1 37
r 0.111178 5 3 ping 64 ------- 4 5.0 1.0 -1 54
+ 0.111178 3 2 ping 64 ------- 4 5.0 1.0 -1 54
r 0.111178 1 2 ping 64 ------- 2 1.0 5.0 -1 55
+ 0.111178 2 3 ping 64 ------- 2 1.0 5.0 -1 55
- 0.111178 3 2 ping 64 ------- 4 5.0 1.0 -1 54
- 0.111178 2 3 ping 64 ------- 2 1.0 5.0 -1 55
r 0.111382 3 2 ping 64 ------- 4 5.0 1.0 -1 38
+ 0.111382 2 1 ping 64 ------- 4 5.0 1.0 -1 38
- 0.111382 2 1 ping 64 ------- 4 5.0 1.0 -1 38
r 0.111382 2 3 ping 64 ------- 2 1.0 5.0 -1 39
+ 0.111382 3 5 ping 64 ------- 2 1.0 5.0 -1 39
- 0.111382 3 5 ping 64 ------- 2 1.0 5.0 -1 39
r 0.111434 2 0 ping 64 ------- 3 4.0 0.0 -1 28
r 0.111434 3 4 ping 64 ------- 1 0.0 4.0 -1 29
r 0.111638 2 1 ping 64 ------- 4 5.0 1.0 -1 30
r 0.111638 3 5 ping 64 ------- 2 1.0 5.0 -1 31
+ 0.12 0 2 ping 64 ------- 1 0.0 4.0 -1 64
- 0.12 0 2 ping 64 ------- 1 0.0 4.0 -1 64
+ 0.12 1 2 ping 64 ------- 2 1.0 5.0 -1 65
- 0.12 1 2 ping 64 ------- 2 1.0 5.0 -1 65
+ 0.12 4 3 ping 64 ------- 3 4.0 0.0 -1 66
- 0.12 4 3 ping 64 ------- 3 4.0 0.0 -1 66
+ 0.12 5 3 ping 64 ------- 4 5.0 1.0 -1 67
- 0.12 5 3 ping 64 ------- 4 5.0 1.0 -1 67
r 0.120256 0 2 ping 64 ------- 1 0.0 4.0 -1 56
+ 0.120256 2 3 ping 64 ------- 1 0.0 4.0 -1 56
- 0.120256 2 3 ping 64 ------- 1 0.0 4.0 -1 56
r 0.120256 1 2 ping 64 ------- 2 1.0 5.0 -1 57
+ 0.120256 2 3 ping 64 ------- 2 1.0 5.0 -1 57
r 0.120256 4 3 ping 64 ------- 3 4.0 0.0 -1 58
+ 0.120256 3 2 ping 64 ------- 3 4.0 0.0 -1 58
- 0.120256 3 2 ping 64 ------- 3 4.0 0.0 -1 58
r 0.120256 5 3 ping 64 ------- 4 5.0 1.0 -1 59
+ 0.120256 3 2 ping 64 ------- 4 5.0 1.0 -1 59
- 0.120461 2 3 ping 64 ------- 2 1.0 5.0 -1 57
- 0.120461 3 2 ping 64 ------- 4 5.0 1.0 -1 59
r 0.120461 2 3 ping 64 ------- 1 0.0 4.0 -1 40
+ 0.120461 3 4 ping 64 ------- 1 0.0 4.0 -1 40
- 0.120461 3 4 ping 64 ------- 1 0.0 4.0 -1 40
r 0.120461 3 2 ping 64 ------- 3 4.0 0.0 -1 42
+ 0.120461 2 0 ping 64 ------- 3 4.0 0.0 -1 42
- 0.120461 2 0 ping 64 ------- 3 4.0 0.0 -1 42
r 0.120666 2 3 ping 64 ------- 2 1.0 5.0 -1 41
+ 0.120666 3 5 ping 64 ------- 2 1.0 5.0 -1 41
- 0.120666 3 5 ping 64 ------- 2 1.0 5.0 -1 41
r 0.120666 3 2 ping 64 ------- 4 5.0 1.0 -1 43
+ 0.120666 2 1 ping 64 ------- 4 5.0 1.0 -1 43
- 0.120666 2 1 ping 64 ------- 4 5.0 1.0 -1 43
r 0.120717 3 4 ping 64 ------- 1 0.0 4.0 -1 32
+ 0.120717 4 3 ping 64 ------- 3 4.0 0.0 -1 68
- 0.120717 4 3 ping 64 ------- 3 4.0 0.0 -1 68
r 0.120717 2 0 ping 64 ------- 3 4.0 0.0 -1 34
+ 0.120717 0 2 ping 64 ------- 1 0.0 4.0 -1 69
- 0.120717 0 2 ping 64 ------- 1 0.0 4.0 -1 69
r 0.120922 3 5 ping 64 ------- 2 1.0 5.0 -1 33
+ 0.120922 5 3 ping 64 ------- 4 5.0 1.0 -1 70
- 0.120922 5 3 ping 64 ------- 4 5.0 1.0 -1 70
r 0.120922 2 1 ping 64 ------- 4 5.0 1.0 -1 35
+ 0.120922 1 2 ping 64 ------- 2 1.0 5.0 -1 71
- 0.120922 1 2 ping 64 ------- 2 1.0 5.0 -1 71
r 0.120973 4 3 ping 64 ------- 3 4.0 0.0 -1 60
+ 0.120973 3 2 ping 64 ------- 3 4.0 0.0 -1 60
- 0.120973 3 2 ping 64 ------- 3 4.0 0.0 -1 60
r 0.120973 0 2 ping 64 ------- 1 0.0 4.0 -1 61
+ 0.120973 2 3 ping 64 ------- 1 0.0 4.0 -1 61
- 0.120973 2 3 ping 64 ------- 1 0.0 4.0 -1 61
r 0.121178 3 2 ping 64 ------- 3 4.0 0.0 -1 44
+ 0.121178 2 0 ping 64 ------- 3 4.0 0.0 -1 44
- 0.121178 2 0 ping 64 ------- 3 4.0 0.0 -1 44
r 0.121178 2 3 ping 64 ------- 1 0.0 4.0 -1 45
+ 0.121178 3 4 ping 64 ------- 1 0.0 4.0 -1 45
- 0.121178 3 4 ping 64 ------- 1 0.0 4.0 -1 45
r 0.121178 5 3 ping 64 ------- 4 5.0 1.0 -1 62
+ 0.121178 3 2 ping 64 ------- 4 5.0 1.0 -1 62
r 0.121178 1 2 ping 64 ------- 2 1.0 5.0 -1 63
+ 0.121178 2 3 ping 64 ------- 2 1.0 5.0 -1 63
- 0.121178 3 2 ping 64 ------- 4 5.0 1.0 -1 62
- 0.121178 2 3 ping 64 ------- 2 1.0 5.0 -1 63
r 0.121382 3 2 ping 64 ------- 4 5.0 1.0 -1 46
+ 0.121382 2 1 ping 64 ------- 4 5.0 1.0 -1 46
- 0.121382 2 1 ping 64 ------- 4 5.0 1.0 -1 46
r 0.121382 2 3 ping 64 ------- 2 1.0 5.0 -1 47
+ 0.121382 3 5 ping 64 ------- 2 1.0 5.0 -1 47
- 0.121382 3 5 ping 64 ------- 2 1.0 5.0 -1 47
r 0.121434 2 0 ping 64 ------- 3 4.0 0.0 -1 36
r 0.121434 3 4 ping 64 ------- 1 0.0 4.0 -1 37
r 0.121638 2 1 ping 64 ------- 4 5.0 1.0 -1 38
r 0.121638 3 5 ping 64 ------- 2 1.0 5.0 -1 39
+ 0.13 0 2 ping 64 ------- 1 0.0 4.0 -1 72
- 0.13 0 2 ping 64 ------- 1 0.0 4.0 -1 72
+ 0.13 1 2 ping 64 ------- 2 1.0 5.0 -1 73
- 0.13 1 2 ping 64 ------- 2 1.0 5.0 -1 73
+ 0.13 4 3 ping 64 ------- 3 4.0 0.0 -1 74
- 0.13 4 3 ping 64 ------- 3 4.0 0.0 -1 74
+ 0.13 5 3 ping 64 ------- 4 5.0 1.0 -1 75
- 0.13 5 3 ping 64 ------- 4 5.0 1.0 -1 75
r 0.130256 0 2 ping 64 ------- 1 0.0 4.0 -1 64
+ 0.130256 2 3 ping 64 ------- 1 0.0 4.0 -1 64
- 0.130256 2 3 ping 64 ------- 1 0.0 4.0 -1 64
r 0.130256 1 2 ping 64 ------- 2 1.0 5.0 -1 65
+ 0.130256 2 3 ping 64 ------- 2 1.0 5.0 -1 65
r 0.130256 4 3 ping 64 ------- 3 4.0 0.0 -1 66
+ 0.130256 3 2 ping 64 ------- 3 4.0 0.0 -1 66
- 0.130256 3 2 ping 64 ------- 3 4.0 0.0 -1 66
r 0.130256 5 3 ping 64 ------- 4 5.0 1.0 -1 67
+ 0.130256 3 2 ping 64 ------- 4 5.0 1.0 -1 67
r 0.130461 2 3 ping 64 ------- 1 0.0 4.0 -1 48
+ 0.130461 3 4 ping 64 ------- 1 0.0 4.0 -1 48
- 0.130461 3 4 ping 64 ------- 1 0.0 4.0 -1 48
r 0.130461 3 2 ping 64 ------- 3 4.0 0.0 -1 50
+ 0.130461 2 0 ping 64 ------- 3 4.0 0.0 -1 50
- 0.130461 2 0 ping 64 ------- 3 4.0 0.0 -1 50
- 0.130461 2 3 ping 64 ------- 2 1.0 5.0 -1 65
- 0.130461 3 2 ping 64 ------- 4 5.0 1.0 -1 67
r 0.130666 2 3 ping 64 ------- 2 1.0 5.0 -1 49
+ 0.130666 3 5 ping 64 ------- 2 1.0 5.0 -1 49
- 0.130666 3 5 ping 64 ------- 2 1.0 5.0 -1 49
r 0.130666 3 2 ping 64 ------- 4 5.0 1.0 -1 51
+ 0.130666 2 1 ping 64 ------- 4 5.0 1.0 -1 51
- 0.130666 2 1 ping 64 ------- 4 5.0 1.0 -1 51
r 0.130717 3 4 ping 64 ------- 1 0.0 4.0 -1 40
+ 0.130717 4 3 ping 64 ------- 3 4.0 0.0 -1 76
- 0.130717 4 3 ping 64 ------- 3 4.0 0.0 -1 76
r 0.130717 2 0 ping 64 ------- 3 4.0 0.0 -1 42
+ 0.130717 0 2 ping 64 ------- 1 0.0 4.0 -1 77
- 0.130717 0 2 ping 64 ------- 1 0.0 4.0 -1 77
r 0.130922 3 5 ping 64 ------- 2 1.0 5.0 -1 41
+ 0.130922 5 3 ping 64 ------- 4 5.0 1.0 -1 78
- 0.130922 5 3 ping 64 ------- 4 5.0 1.0 -1 78
r 0.130922 2 1 ping 64 ------- 4 5.0 1.0 -1 43
+ 0.130922 1 2 ping 64 ------- 2 1.0 5.0 -1 79
- 0.130922 1 2 ping 64 ------- 2 1.0 5.0 -1 79
r 0.130973 4 3 ping 64 ------- 3 4.0 0.0 -1 68
+ 0.130973 3 2 ping 64 ------- 3 4.0 0.0 -1 68
- 0.130973 3 2 ping 64 ------- 3 4.0 0.0 -1 68
r 0.130973 0 2 ping 64 ------- 1 0.0 4.0 -1 69
+ 0.130973 2 3 ping 64 ------- 1 0.0 4.0 -1 69
- 0.130973 2 3 ping 64 ------- 1 0.0 4.0 -1 69
r 0.131178 3 2 ping 64 ------- 3 4.0 0.0 -1 52
+ 0.131178 2 0 ping 64 ------- 3 4.0 0.0 -1 52
- 0.131178 2 0 ping 64 ------- 3 4.0 0.0 -1 52
r 0.131178 2 3 ping 64 ------- 1 0.0 4.0 -1 53
+ 0.131178 3 4 ping 64 ------- 1 0.0 4.0 -1 53
- 0.131178 3 4 ping 64 ------- 1 0.0 4.0 -1 53
r 0.131178 5 3 ping 64 ------- 4 5.0 1.0 -1 70
+ 0.131178 3 2 ping 64 ------- 4 5.0 1.0 -1 70
r 0.131178 1 2 ping 64 ------- 2 1.0 5.0 -1 71
+ 0.131178 2 3 ping 64 ------- 2 1.0 5.0 -1 71
- 0.131178 3 2 ping 64 ------- 4 5.0 1.0 -1 70
- 0.131178 2 3 ping 64 ------- 2 1.0 5.0 -1 71
r 0.131382 3 2 ping 64 ------- 4 5.0 1.0 -1 54
+ 0.131382 2 1 ping 64 ------- 4 5.0 1.0 -1 54
- 0.131382 2 1 ping 64 ------- 4 5.0 1.0 -1 54
r 0.131382 2 3 ping 64 ------- 2 1.0 5.0 -1 55
+ 0.131382 3 5 ping 64 ------- 2 1.0 5.0 -1 55
- 0.131382 3 5 ping 64 ------- 2 1.0 5.0 -1 55
r 0.131434 2 0 ping 64 ------- 3 4.0 0.0 -1 44
r 0.131434 3 4 ping 64 ------- 1 0.0 4.0 -1 45
r 0.131638 2 1 ping 64 ------- 4 5.0 1.0 -1 46
r 0.131638 3 5 ping 64 ------- 2 1.0 5.0 -1 47
+ 0.14 0 2 ping 64 ------- 1 0.0 4.0 -1 80
- 0.14 0 2 ping 64 ------- 1 0.0 4.0 -1 80
+ 0.14 1 2 ping 64 ------- 2 1.0 5.0 -1 81
- 0.14 1 2 ping 64 ------- 2 1.0 5.0 -1 81
+ 0.14 4 3 ping 64 ------- 3 4.0 0.0 -1 82
- 0.14 4 3 ping 64 ------- 3 4.0 0.0 -1 82
+ 0.14 5 3 ping 64 ------- 4 5.0 1.0 -1 83
- 0.14 5 3 ping 64 ------- 4 5.0 1.0 -1 83
r 0.140256 0 2 ping 64 ------- 1 0.0 4.0 -1 72
+ 0.140256 2 3 ping 64 ------- 1 0.0 4.0 -1 72
- 0.140256 2 3 ping 64 ------- 1 0.0 4.0 -1 72
r 0.140256 1 2 ping 64 ------- 2 1.0 5.0 -1 73
+ 0.140256 2 3 ping 64 ------- 2 1.0 5.0 -1 73
r 0.140256 4 3 ping 64 ------- 3 4.0 0.0 -1 74
+ 0.140256 3 2 ping 64 ------- 3 4.0 0.0 -1 74
- 0.140256 3 2 ping 64 ------- 3 4.0 0.0 -1 74
r 0.140256 5 3 ping 64 ------- 4 5.0 1.0 -1 75
+ 0.140256 3 2 ping 64 ------- 4 5.0 1.0 -1 75
- 0.140461 2 3 ping 64 ------- 2 1.0 5.0 -1 73
- 0.140461 3 2 ping 64 ------- 4 5.0 1.0 -1 75
r 0.140461 2 3 ping 64 ------- 1 0.0 4.0 -1 56
+ 0.140461 3 4 ping 64 ------- 1 0.0 4.0 -1 56
- 0.140461 3 4 ping 64 ------- 1 0.0 4.0 -1 56
r 0.140461 3 2 ping 64 ------- 3 4.0 0.0 -1 58
+ 0.140461 2 0 ping 64 ------- 3 4.0 0.0 -1 58
- 0.140461 2 0 ping 64 ------- 3 4.0 0.0 -1 58
r 0.140666 2 3 ping 64 ------- 2 1.0 5.0 -1 57
+ 0.140666 3 5 ping 64 ------- 2 1.0 5.0 -1 57
- 0.140666 3 5 ping 64 ------- 2 1.0 5.0 -1 57
r 0.140666 3 2 ping 64 ------- 4 5.0 1.0 -1 59
+ 0.140666 2 1 ping 64 ------- 4 5.0 1.0 -1 59
- 0.140666 2 1 ping 64 ------- 4 5.0 1.0 -1 59
r 0.140717 3 4 ping 64 ------- 1 0.0 4.0 -1 48
+ 0.140717 4 3 ping 64 ------- 3 4.0 0.0 -1 84
- 0.140717 4 3 ping 64 ------- 3 4.0 0.0 -1 84
r 0.140717 2 0 ping 64 ------- 3 4.0 0.0 -1 50
+ 0.140717 0 2 ping 64 ------- 1 0.0 4.0 -1 85
- 0.140717 0 2 ping 64 ------- 1 0.0 4.0 -1 85
r 0.140922 3 5 ping 64 ------- 2 1.0 5.0 -1 49
+ 0.140922 5 3 ping 64 ------- 4 5.0 1.0 -1 86
- 0.140922 5 3 ping 64 ------- 4 5.0 1.0 -1 86
r 0.140922 2 1 ping 64 ------- 4 5.0 1.0 -1 51
+ 0.140922 1 2 ping 64 ------- 2 1.0 5.0 -1 87
- 0.140922 1 2 ping 64 ------- 2 1.0 5.0 -1 87
r 0.140973 4 3 ping 64 ------- 3 4.0 0.0 -1 76
+ 0.140973 3 2 ping 64 ------- 3 4.0 0.0 -1 76
- 0.140973 3 2 ping 64 ------- 3 4.0 0.0 -1 76
r 0.140973 0 2 ping 64 ------- 1 0.0 4.0 -1 77
+ 0.140973 2 3 ping 64 ------- 1 0.0 4.0 -1 77
- 0.140973 2 3 ping 64 ------- 1 0.0 4.0 -1 77
r 0.141178 5 3 ping 64 ------- 4 5.0 1.0 -1 78
+ 0.141178 3 2 ping 64 ------- 4 5.0 1.0 -1 78
r 0.141178 1 2 ping 64 ------- 2 1.0 5.0 -1 79
+ 0.141178 2 3 ping 64 ------- 2 1.0 5.0 -1 79
- 0.141178 3 2 ping 64 ------- 4 5.0 1.0 -1 78
- 0.141178 2 3 ping 64 ------- 2 1.0 5.0 -1 79
r 0.141178 3 2 ping 64 ------- 3 4.0 0.0 -1 60